<?xml version="1.0"?>
<VTKFile type="UnstructuredGrid"  version="0.1"  >
<UnstructuredGrid>
<Piece  NumberOfPoints="2714" NumberOfCells="4895">
<Points>
<DataArray  type="Float64"  NumberOfComponents="3"  format="ascii">367556.8685326607 1525596.688761796 0  367635.6454162283 1525823.217369616 0  367457.5391218169 1525718.608391134 0  367413.4052053969 1523738.46178056 0  367348.0694407795 1523939.087411043 0  367236.2087175669 1523782.883605691 0  369878.4326073452 1521169.023917394 0  370113.3639966646 1521128.790242808 0  370012.0444076875 1521346.335756192 0  370519.5707614782 1523448.365202598 0  370615.1303587087 1523255.382772654 0  370750.7910462556 1523415.114662456 0  376423.9375298842 1523682.695293898 0  376634.6707991196 1523596.969588988 0  376594.5045764699 1523792.648507408 0  375696.8 1519949.7 0  375834 1519872.5 0  375847.414820798 1520056.856909399 0  369238.2942761761 1526785.678212776 0  369366.4428086628 1526584.342894994 0  369398.3551030774 1526804.922935675 0  371969.3009210434 1522789.701665025 0  371738.6487545061 1522852.281830523 0  371900.8796158547 1522624.629445033 0  371425.5070403157 1522534.288007843 0  371473.2561622398 1522278.945252488 0  371611.3425196608 1522503.699859471 0  368797.0196716897 1521640.180446297 0  368625.5435072479 1521712.533879387 0  368576.769205305 1521565.933293161 0  370016.064299548 1526553.604662983 0  370261.9532867378 1526637.295360656 0  370237.5295595033 1526448.350200679 0  367246.9955641265 1524632.371428276 0  367436.1988852656 1524509.108942171 0  367273.940273155 1524429.052909301 0  371096.0549194419 1521918.344809461 0  371289.2571093031 1522039.054976813 0  371025.8745519355 1522124.766072093 0  371233.5942660079 1522256.037538296 0  371059.1648050447 1522732.560655446 0  370834.5846186446 1522735.82668061 0  370899.019758213 1522923.972750695 0  367061.8717006717 1523650.166849145 0  366894.3759170139 1523606.996158247 0  367090.2935738105 1523453.547969364 0  372269.2 1520364.7 0  372228.75 1520459.1 0  372127.2909965342 1520328.917232214 0  367961.7936162409 1524960.171481506 0  368174.9005272147 1524815.10852606 0  368183.5629486926 1524982.516556626 0  368369.0657051977 1525478.520724533 0  368556.9629551292 1525440.106124606 0  368446.6910427983 1525253.38442565 0  372427.7 1523939.5 0  372282.8 1523826.7 0  372457.7275449953 1523759.556508607 0  370814 1527648.1 0  370991.2 1527697.3 0  370837.8088132123 1527876.082565953 0  373684.0854429847 1522849.469749138 0  373706.5638464922 1522604.415332893 0  373548.9525334216 1522629.225194541 0  372569.3 1524305.2 0  372565.7 1524433.6 0  372723.5546467835 1524363.776235932 0  370046.303051076 1524572.166127309 0  369986.8341728356 1524350.109494177 0  369865.7143945241 1524573.383826711 0  373473.237289456 1521956.215963908 0  373414.1482971172 1521731.458659235 0  373647.2871746094 1521835.551153288 0  366869.882275239 1523444.9244648 0  370567.3180086876 1521108.256877615 0  370512.0605562314 1521328.717030598 0  370345.3945561261 1521128.790729532 0  370296.9218526106 1521330.895925475 0  374469.762565296 1521832.197612306 0  374309.7191742888 1522001.975480357 0  374473.2549986049 1522044.980067744 0  368708.6507849616 1521446.216046614 0  367526.564136176 1526042.387237334 0  367743.2117360363 1526013.942596992 0  376828.2493378383 1523370.749094268 0  376585.1288611156 1523331.024910233 0  376646.8502305686 1523187.150110551 0  371703.3975049325 1522350.794086597 0  367432.2 1527590 0  367425.15 1527712 0  367615.1005573744 1527661.772952298 0  369161.7011034793 1527853.187812885 0  369394.9441679117 1527877.961855744 0  369243.6215598701 1528037.264028243 0  377093.7 1520886.8 0  377120 1521008.8 0  376935.9747309929 1520969.199876658 0  376861.8566792359 1523223.177464137 0  368018.4717720668 1524749.044633803 0  371288.6172545406 1523212.654475274 0  371068.7580750075 1523227.802975934 0  371273.1419957184 1523035.568803921 0  371097.3355986325 1523009.283272407 0  371761.9 1526318 0  371759.9 1526419 0  371655.7899002746 1526300.270856368 0  370162.3 1527352.5 0  370328.3 1527456.5 0  370165.564576899 1527548.577246796 0  369178.7108667808 1526588.173205793 0  374089.4090867137 1521914.086110309 0  374175.6163590995 1522127.077440626 0  377935.9997784462 1522900.875251755 0  377962.4068828147 1523156.998206591 0  377759.9717448218 1522971.22347595 0  370843.3 1527281.2 0  370657.3 1527205.2 0  370811.9436073603 1527092.335381284 0  375361.5 1524752 0  375366.1 1524875.4 0  375171.2361313961 1524806.656624622 0  375712.8594066419 1522861.535253075 0  375519.403188414 1522833.970393947 0  375699.9247683773 1522626.74835428 0  368906.65724214 1524475.116049106 0  368963.6164795326 1524693.580246378 0  369074.7359113276 1524509.735990348 0  369183.1744145287 1524642.740013655 0  372614.1 1525296 0  372601.1 1525178 0  372791.4419586263 1525216.746224923 0  371722.9503528985 1522639.161274215 0  370946.8 1528472.7 0  370846.25 1528446.1 0  370937.5159073812 1528305.918415913 0  377326.8993589762 1526221.680008486 0  377248.8763072319 1526023.920351477 0  377443.8134418376 1526001.864615805 0  367968.855674012 1523051.067045691 0  367826.8532842874 1522882.983741697 0  368104.0047892614 1522913.823706597 0  367999.7585175493 1522744.915613957 0  372029.8021557635 1521554.891111263 0  372270.3048615661 1521638.766901271 0  372071.8877607996 1521752.633842893 0  369241.5521703925 1526362.631672005 0  374764 1524243.2 0  374622 1524185.5 0  374757.7316893615 1524055.044974951 0  374970.9319824258 1522214.950818359 0  375055.9965721103 1522414.262728182 0  375221.0642103962 1522288.82557579 0  375610.8411388294 1522379.050586003 0  375471.9798678126 1522505.788182151 0  367725.0306511762 1525659.979791859 0  369461.8514336404 1522686.578652653 0  369325.7931357214 1522574.43371931 0  369274.9674226277 1522784.563563443 0  370684.9028099918 1522876.372348789 0  370662.5725050617 1523045.013342659 0  371997.3292498062 1522175.411918824 0  372206.6653290422 1522097.468733905 0  372094.6632884323 1521959.797035913 0  368122.6760045114 1527519.658585825 0  367981.7050844238 1527361.622664753 0  367917.370466215 1527570.723899233 0  370705.8381560268 1523587.922583074 0  370318.2382281849 1523330.220653109 0  370450.7985408041 1523238.822767595 0  370745.7 1528419.5 0  370651.1 1528378.9 0  370787.08227775 1528331.896287755 0  377061.0005099441 1526192.699856112 0  377199.1343139021 1526405.82933355 0  367461.7 1528873.2 0  367419.7 1528782.8 0  367585.6561481796 1528808.421777048 0  377534.5258753212 1526117.28808253 0  368545.8991125686 1522402.775869067 0  368785.1428882789 1522406.609370836 0  368643.8716518922 1522271.329259185 0  375510 1520064.8 0  375586.8 1520021.7 0  375610.7970634174 1520170.273597197 0  377311.7608279101 1523591.38123993 0  377113.7828808944 1523713.34097865 0  377335.1881855017 1523771.416923207 0  375529.7225195215 1522659.017341137 0  370298.7845614782 1525606.884649076 0  370224.1837995814 1525429.36315148 0  370446.6563101923 1525421.462941243 0  368675.9520356602 1523478.487721528 0  368842.3148684524 1523674.911921741 0  368858.8725000288 1523397.4524167 0  375833.3897323037 1520551.073932602 0  375944.274923175 1520375.90411298 0  375690.6571795773 1520378.545309934 0  375802.7779353143 1520225.849182455 0  368154.8171688321 1523128.685810422 0  367975.3674447269 1523249.885139204 0  370240.2418508972 1522344.042073118 0  370423.9012479212 1522442.460369939 0  370381.1844958077 1522222.965719752 0  371350.4849300765 1521075.278432075 0  371192.0198693853 1520893.999867215 0  371210.7019349987 1521163.860507261 0  369447.9906264204 1525690.687780014 0  369675.5882272104 1525648.776731416 0  369566.6665210843 1525493.075584058 0  368696.9389951035 1522546.218218079 0  368572.2351483826 1526356.934630323 0  368624.5841956411 1526543.507110712 0  368810.1710608471 1526445.17267188 0  377491.4568707328 1523873.03862925 0  377666.6170136975 1524002.840849946 0  377633.9940284904 1523779.49473571 0  373927.429746418 1521354.126902407 0  373704.1680298123 1521337.404157995 0  373850.2797387158 1521174.176385279 0  377469.9916321592 1524212.035905191 0  377242.0438491494 1524219.772110329 0  377348.2429128066 1524071.278671011 0  369813.3183077947 1526592.328614761 0  369661.9484688566 1526748.092386516 0  369591.105033108 1526523.989529836 0  374268.0011419425 1521789.929146788 0  372855.5 1520827.7 0  372942.7 1520914.8 0  372767.1771698632 1521003.324289853 0  375547.5 1526370.3 0  375427.5 1526492.3 0  375329.023740678 1526283.925521063 0  374313.1109235433 1520427.729011548 0  374461.7875108205 1520366.473690172 0  374535.7431255503 1520569.001631873 0  368805.1234682718 1526259.017254621 0  375156.9018474495 1522072.375218998 0  377221.7 1527521.5 0  377291.2209686284 1527314.391267806 0  377459.182654544 1527477.803011921 0  376336.6533036984 1524125.59526692 0  376325.5265507974 1523887.767915289 0  376471.0894166245 1523922.963143505 0  375056.558473827 1520261.570991643 0  375249.2619754244 1520165.167494929 0  375282.751604315 1520367.402282884 0  376842.7868853742 1522876.061281961 0  376795.5864262318 1523080.607846792 0  376637.881666229 1522975.321066021 0  367561.8311449921 1523885.594947508 0  369807.4693216787 1520948.912264746 0  369676.1151069817 1521120.160372057 0  379233.2 1522611.3 0  379098.2 1522619.3 0  379161.4911016949 1522792.443926233 0  375802.9654217549 1520797.794230929 0  375984.088910524 1520681.822448112 0  368981.7981079365 1526343.681355379 0  369010.5322864333 1526143.045455827 0  368829.7335080333 1526067.551551798 0  368686.1150930594 1523885.127763727 0  368892.2795829005 1523903.31058096 0  374376.5623969506 1520695.308086834 0  370057.8404792854 1525572.144082733 0  372950.9616901336 1523526.476581232 0  373036.6207369418 1523730.7608121 0  372799.5488840759 1523660.921765043 0  376438.3 1519928.5 0  376528.3 1519975.5 0  376390.2209601246 1520017.358032857 0  369338.5327876152 1527710.130594918 0  378193.3307790572
[...]
<PointData  Scalars="f_33"> 
<DataArray  type="Float64"  Name="f_33"  format="ascii">1.9601487701732431e+03  1.9914713863456607e+03  1.9698246353165375e+03  1.8523419809440302e+03  1.8578500865299686e+03  1.8622554759529844e+03  1.7625244655683921e+03  1.7657260307232032e+03  1.7611543385399928e+03  1.7702499595349923e+03  1.7571997610956530e+03  1.7433062871259322e+03  1.5567547142269227e+03  1.5491136293823613e+03  1.5489320742660075e+03  2.4073849003043729e+03  2.4150608173842797e+03  2.2934049066038147e+03  2.9369687843373545e+03  2.9583187314710622e+03  3.0723672759528463e+03  1.7180344930587062e+03  1.7230209675622684e+03  1.7220311720667294e+03  1.7338844483974599e+03  1.7354469362747227e+03  1.7304045921397465e+03  1.7602397920260930e+03  1.7434842778903076e+03  1.7611412539268727e+03  2.5522850155679866e+03  2.3694722007845335e+03  2.3264127615140392e+03  1.9090376510125873e+03  1.9081770052320837e+03  1.9097577884077068e+03  1.7454797995886322e+03  1.7405378694741371e+03  1.7455266396540283e+03  1.7407398887861989e+03  1.7354896407106960e+03  1.7361816215649665e+03  1.7350250914368110e+03  1.8660939817348253e+03  1.8675721045344842e+03  1.8588296947139502e+03  1.8511023229325899e+03  1.8473298815164619e+03  1.8087867734436363e+03  2.1224687611191944e+03  2.0189333366821838e+03  2.0586284116920988e+03  2.2994716348217444e+03  2.2392698239309198e+03  2.1339168314806661e+03  1.7207364238253870e+03  1.6675504241664519e+03  1.6699045328002987e+03  1.1923013201746337e+03  1.8320200389113479e+03  2.7974111654928365e+03  1.6655062754193411e+03  1.6623372838825385e+03  1.6709429434568681e+03  1.7300076656413637e+03  1.7349028387524763e+03  1.7378500191327569e+03  1.8348555196070265e+03  1.8165864558665892e+03  1.9148549947014319e+03  1.6729842280320111e+03  1.6632702092079803e+03  1.6667246076208205e+03  1.8608474001525590e+03  1.7752184608311995e+03  1.7658915437568596e+03  1.7694678183511612e+03  1.7615613688094161e+03  1.6438834693120029e+03  1.6537467345527878e+03  1.6449312112469484e+03  1.7684326656026437e+03  1.9993546885407832e+03  2.0069105565477532e+03  1.5420675721156895e+03  1.5515365209814393e+03  1.5543951990173107e+03  1.7285840876670190e+03  2.1024000321105336e+03  2.1114470720988797e+03  2.1050705977637767e+03  2.6896773523602351e+03  2.7460488640084018e+03  2.7930129989045518e+03  2.1409806533498131e+03  2.0668498661532021e+03  2.0015382937874076e+03  1.5450214283175203e+03  1.9890353871981019e+03  1.7233137217365361e+03  1.7232863522076093e+03  1.7258668975904156e+03  1.7295166221289930e+03  2.1182469450497219e+03  2.1217285787169758e+03  2.0758307067158516e+03  2.7119292504880914e+03  2.0678920159290210e+03  2.8685172495028191e+03  2.8161519954570695e+03  1.6608453893938033e+03  1.6614961789501212e+03  1.5069889239138784e+03  1.5049893391526612e+03  1.5085373457169283e+03  2.2259188802792710e+03  2.2248619679812086e+03  2.1911686096644839e+03  1.7596280215444353e+03  1.7870348109963813e+03  1.6868748753089474e+03  1.5962195077098734e+03  1.6016799017508138e+03  1.5980374478389069e+03  1.9251186499821899e+03  1.9696087361720777e+03  1.9369771739196965e+03  1.9663331123571802e+03  1.8169695000716949e+03  1.7885893434489822e+03  1.7863355337990965e+03  1.7260726932299924e+03  2.9245447965818412e+03  2.9024218872081028e+03  2.9198538137923174e+03  1.8677561385514448e+03  1.8425557666729726e+03  1.8786682204690987e+03  1.8244014626765884e+03  1.8281207920923330e+03  1.8186546224585948e+03  1.8207957178727752e+03  1.7242308703882088e+03  1.7137537800116033e+03  1.7201628280032628e+03  2.7449716469159866e+03  1.6586839238911023e+03  1.6389251125696535e+03  1.6172468582452282e+03  1.6391324033669762e+03  1.6268828714727722e+03  1.6165276958871466e+03  1.5955647843577071e+03  1.6029459290983993e+03  2.0612828916288481e+03  1.7700357325933153e+03  1.7739814718194441e+03  1.7769458984620446e+03  1.7427622066374895e+03  1.7453275976433856e+03  1.7222492246850829e+03  1.7147378642913118e+03  1.7179492759467944e+03  2.1367374016848944e+03  2.0983432368106542e+03  2.0979634182308082e+03  1.7496617372120616e+03  1.7737907568128730e+03  1.7654513419064406e+03  2.8560337292454324e+03  2.8303382003375505e+03  2.8939595892370621e+03  1.8513251844969575e+03  1.8798767309849518e+03  2.5323841290515484e+03  2.4880536191362235e+03  2.4760809567678357e+03  1.8973199070518428e+03  1.7970606165369925e+03  1.7801053395438532e+03  1.7885931704191562e+03  2.3820226230683661e+03  2.3613281528040511e+03  2.3105783486435275e+03  1.5198019035259370e+03  1.5341954339782806e+03  1.5211282222500115e+03  1.6033676833572572e+03  2.1201079232013722e+03  2.0304755320485149e+03  1.9801202348356969e+03  1.7943316623822586e+03  1.7860138780941145e+03  1.7901496079038814e+03  2.1656870543232881e+03  2.1740005453722729e+03  2.2772590607250058e+03  2.2539256602394757e+03  1.8177517431391109e+03  1.8237884319826862e+03  1.7515417015920023e+03  1.7480838781080633e+03  1.7490407427120738e+03  1.7695234830855672e+03  1.7822083121383057e+03  1.7675119745068023e+03  2.3132912918877723e+03  2.2522590335838413e+03  2.2251922866761088e+03  1.7908619919448531e+03  2.2691830981412950e+03  2.2556896039139388e+03  2.3604826018151789e+03  1.5143671104758255e+03  1.5162757576460185e+03  1.5091908165526952e+03  1.7189896285806385e+03  1.7342658974628457e+03  1.7815764213952391e+03  1.5219973973581018e+03  1.5320604764867153e+03  1.5195120133509488e+03  2.6620763949001521e+03  2.8561059985164575e+03  2.8048324100193690e+03  1.6588235245209319e+03  2.1281854717781762e+03  2.0782188904216850e+03  1.9870091544120094e+03  2.1371496886935092e+03  2.1275080313215517e+03  2.0373690246227573e+03  2.1412835355722036e+03  2.1020180441487246e+03  2.0066566791273981e+03  2.4131815283580572e+03  1.6441555323781693e+03  2.1847594910559337e+03  2.0398284988111575e+03  2.3096298260149679e+03  1.5609130672344609e+03  1.5629255666899639e+03  1.5549444653441544e+03  2.0979433133401567e+03  2.2220943712576723e+03  2.1532926817339535e+03  1.5523362695080125e+03  1.5502006047274365e+03  1.5583710773508992e+03  1.8399670018713405e+03  1.7669268037261556e+03  1.7612182069549476e+03  1.4553907291828248e+03  1.4627060412732824e+03  1.4396040227910880e+03  2.1604627434854888e+03  2.1458458152999801e+03  2.5353129881731270e+03  2.5055906018582868e+03  2.5079929770096519e+03  1.7513721288499378e+03  1.7529132035307889e+03  2.0685530419674424e+03  2.0830961049123207e+03  1.6865743563932904e+03  1.6912180789502052e+03  1.6890325704905247e+03  2.4628587478117761e+03  2.4388156802367130e+03  2.3636901018726130e+03  2.7309845548319645e+03  1.4934142888835061e+03  1.4864769493423930e+03  1.4822164161360186e+03  2.7975860787443517e+03  2.8227517887678164e+03  2.8037013925461947e+03  2.0928120354257189e+03  2.4938922094457339e+03  2.4978393501420160e+03  2.4532282273080223e+03  2.1823574997570895e+03  1.6973912906190410e+03  1.6655760840378939e+03  1.7648297454664300e+03  1.7486092246591054e+03  1.7854471821853394e+03  1.8037499192811633e+03  1.8193436383132930e+03  1.7999677066346710e+03  1.8033288413677831e+03  1.8096354027545826e+03  1.6621950009612251e+03  1.6715625729526582e+03  1.6608735145359758e+03  1.5874581835657332e+03  1.5778607487831889e+03  1.5904453767422910e+03  1.9151821302964927e+03  1.6651112401478658e+03  1.6688550841610263e+03  1.6694838276125474e+03  1.6739147349889488e+03  1.8387258437615260e+03  1.8166200331213595e+03  1.7126021318007602e+03  1.7180703572964994e+03  1.7103243612099598e+03  1.9473949174967479e+03  1.9316601092310761e+03  1.9425520898248492e+03  1.5487254843911462e+03  1.5942639918225264e+03  1.5877573698456094e+03  2.8178540873439515e+03  1.6132382290425376e+03  1.6076906875884645e+03  1.9363144969602317e+03  2.0757584291269145e+03  2.1601349224524615e+03  2.1196561230028733e+03  1.5962735647710772e+03  2.1531614458240997e+03  2.1540988215635348e+03  2.1184399085116947e+03  1.5239351028723777e+03  1.5380775575041043e+03  1.5285274746990387e+03  1.7366757620448602e+03  2.1469941682175236e+03  2.0749370417587029e+03  1.6886776626703638e+03  1.6495809810108976e+03  1.6332033423960020e+03  1.8123162779531845e+03  1.8348253665348352e+03  1.7552894057731237e+03  1.5896209705240169e+03  1.6095232228845882e+03  1.7456098526917444e+03  1.9150244209176606e+03  1.9205699062518891e+03  1.9211449752859519e+03  1.7946891011895646e+03  2.3522397751954413e+03  1.5875438230459768e+03  1.6573186530836813e+03  1.5426356431264910e+03  1.8705802923175727e+03  2.0798527793485887e+03  1.9860638849259169e+03  1.5636752704584492e+03  1.5663343822177653e+03  1.5731007365588735e+03  1.9148831827730885e+03  1.8835576484563355e+03  1.8601476367373925e+03  1.4775346988132942e+03  1.4885545411786145e+03  1.4823174088477356e+03  2.1233051941476792e+03  2.0882625102227739e+03  2.0821983112088865e+03  2.0414771825068808e+03  1.7153171337053388e+03  2.7511576809290555e+03  2.6701560771366539e+03  2.6963624716726385e+03  1.5629673582282537e+03  1.7797366078852122e+03  2.1951778033876476e+03  2.1328427710111623e+03  2.0934063429171733e+03  2.0382002183791199e+03  2.7147140111262916e+03  1.6607027325544334e+03  1.9099226645679914e+03  1.9588538363931477e+03  1.9110347402746779e+03  1.9725396575371540e+03  1.9922917539107846e+03  2.0019629316715495e+03  2.0143075036412865e+03  1.9937332588443112e+03  1.5627397482452470e+03  1.8317955526381547e+03  1.8291648740172586e+03  3.1015284631839772e+03  3.1068330513924066e+03  3.0449839602550774e+03  2.1037130929338387e+03  2.1150143388292968e+03  2.1586313718162673e+03  1.5732752492357527e+03  1.5811462950672153e+03  1.5812187289270962e+03  1.4742446696508980e+03  1.4841038218142871e+03  1.4798009987275386e+03  1.5816107074911995e+03  1.5732343453827718e+03  1.9194488232519996e+03  1.7220919245440662e+03  1.7345104324222823e+03  1.7158600433830500e+03  1.7352862480992292e+03  1.7299963845262032e+03  1.7320335132217315e+03  1.7476731266731906e+03  1.7564896283312701e+03  1.5704457945070494e+03  1.7866067658565189e+03  1.7855658129819860e+03  1.7823167961469178e+03  1.5846347477527681e+03  1.7939326069668998e+03  1.6468609001559214e+03  1.9221015105379320e+03  2.7682791207781920e+03  2.2729292462793360e+03  2.2662461033621294e+03  2.2140651018687981e+03  1.5090989773346230e+03  1.6956617161759614e+03  1.6894223043146339e+03  1.6981939038972228e+03  1.5951942574251480e+03  1.5945882535290516e+03  1.5985937252310505e+03  1.6852002281679659e+03  1.6850240291330779e+03  1.9605194045009732e+03  1.9929178174190740e+03  1.8880574726777006e+03  1.8442972161835723e+03  1.8779504164714201e+03  1.7917920705060110e+03  1.8294875019812869e+03  2.1157877794673450e+03  2.0777986569676182e+03  1.8871692279472493e+03  1.8819083899587308e+03  1.8834473048926277e+03  1.5777260421061001e+03  1.8314876077780484e+03  2.0714358430605139e+03  1.8464308769678703e+03  1.8494547446457834e+03  1.8485675913687644e+03  2.1455563435201957e+03  2.1119062977108010e+03  2.2718906882557699e+03  1.5269344005196094e+03  1.7570927653415381e+03  1.7218057419891218e+03  1.7228069067183442e+03  1.6947968500489997e+03  1.7807527331872111e+03  1.7844003988480458e+03  1.7884807556837409e+03  1.7729228103805738e+03  1.6199475682194904e+03  1.6028884297677671e+03  1.6061342579134496e+03  2.6967582041453875e+03  2.6168193045961502e+03  1.7864642810463849e+03  1.9361397252553500e+03  1.8918458447958099e+03  1.9184895239657258e+03  1.9044228813832462e+03  2.0054694443566061e+03  2.0389502126268039e+03  2.0183906160006457e+03  2.4614971333681801e+03  2.2424196508457726e+03  2.3839350396648210e+03  2.3025714879046523e+03  1.6651021437054505e+03  1.6702834524711307e+03  1.6623591515862222e+03  1.9091903558043250e+03  1.9040966144534063e+03  1.9037405342225545e+03  1.9308082339139735e+03  1.9213915019474443e+03  1.4609735162691118e+03  1.4688079093921044e+03  1.4607893075954462e+03  2.3541014750103081e+03  2.7836639658216500e+03  2.5598038885415808e+03  2.8692242317172986e+03  2.1992130871713721e+03  1.7113220728663539e+03  1.7168836539489196e+03  2.1844504647893209e+03  2.1798934244596121e+03  1.4965115571926399e+03  1.5009468257929682e+03  1.4945205587423134e+03  2.8091698039341318e+03  2.7296662738999016e+03  2.8468609930791595e+03  1.5841316397893800e+03  1.5729528858435053e+03  1.5632618626263661e+03  2.5203668195944570e+03  2.3836316332597071e+03  1.4760500400117053e+03  1.4804684059634246e+03  1.4698718624568935e+03  1.5402653907592419e+03  1.5319847070871408e+03  1.4860046022918420e+03  1.4932022863153095e+03  1.4921849849657879e+03  1.6150279740236501e+03  1.6241305862624538e+03  1.6182143951219796e+03  1.5773776416074759e+03  1.8534283207867165e+03  1.6804151098070024e+03  1.7434533918221916e+03  1.7133145701775757e+03  1.7073453944009075e+03  1.7145180454347885e+03  2.2939226995484842e+03  2.2552981525002269e+03  2.1935103739667370e+03  1.8794683369678016e+03  1.8843318829742666e+03  1.9554372849425270e+03  1.9437490543631875e+03  1.8884409374845407e+03  1.8952245022524869e+03  1.8943831941144224e+03  1.8911352032639177e+03  1.8903848267370925e+03  2.0491130088013360e+03  2.0631775885153374e+03  2.0857170159081738e+03  2.7039951740950560e+03  2.6030701496308429e+03  2.5003190822425354e+03  1.5527116473956212e+03  2.0210427425439600e+03  2.1108212923565684e+03  1.9848212921778040e+03  1.7507231158495956e+03  1.4837202121860444e+03  1.4756992546431738e+03  1.4813391795657628e+03  2.0545073771447928e+03  2.1784980625720559e+03  2.2184416402322613e+03  2.2993889891911249e+03  1.7643731388623228e+03  1.7475973125101257e+03  1.6680298889457108e+03  1.6021134160646900e+03  1.6041212068583868e+03  1.9505386836203261e+03  1.9618720584472846e+03  1.7916843559020169e+03  2.0778290896842645e+03  2.0854128996125610e+03  2.0839114976800724e+03  1.6422780106930932e+03  1.6499433495318272e+03  1.6522623734433739e+03  1.6438474502189997e+03  1.6439018157801472e+03  2.3028508071228412e+03  2.2431349678924739e+03  2.1574333894803435e+03  1.7486515418860924e+03  1.8157364553323889e+03  1.8369019826863198e+03  1.7374888758169802e+03  1.8421023883113603e+03  1.8442148289022116e+03  1.9236640737921746e+03  1.9388256349551925e+03  2.0409483769793505e+03  1.9918888379163775e+03  2.0354213747185022e+03  1.7862806208457000e+03  1.7858219324070271e+03  1.7814777751545423e+03  2.4575590045399367e+03  1.7896841662272557e+03  1.9709955810479325e+03  2.1377305169790980e+03  1.8230484606028956e+03  1.9572276712198457e+03  1.6721333296362141e+03  1.6703817641945375e+03  1.6681386530624552e+03  1.8413183899060678e+03  2.7796451341326615e+03  2.7877702610458878e+03  2.7575855425855625e+03  1.5882703625138320e+03  1.5951910233952460e+03  2.1509542691762381e+03  2.2088175933966149e+03  2.1781218065986523e+03  1.6584889089260955e+03  2.1849797590644589e+03  2.0108952099923772e+03  2.0167577388713962e+03  1.9360158356388113e+03  1.9721455706934648e+03  1.9618534140454976e+03  1.8781501730153232e+03  1.8367898712431256e+03  1.8487844893968097e+03  1.5453677819241339e+03  2.0724002668821086e+03  2.0473898437280741e+03  1.9467272656891198e+03  2.1995580363376575e+03  2.2635855884572393e+03  2.0910237106118311e+03  1.4830772323490364e+03  2.2122867496513750e+03  2.2202482254531351e+03  1.7505376649746140e+03  1.7509840819113895e+03  1.7541436038519212e+03  1.7544326895580784e+03  1.9207714201061517e+03  2.1783302272970227e+03  2.0762163008603120e+03  2.0839688167215895e+03  1.8180933105084900e+03  1.7420559823712008e+03  1.7122152062237965e+03  1.7272644047313254e+03  1.4948353477981216e+03  1.4846374710771208e+03  1.7294558312999998e+03  1.7976255993402185e+03  2.0056788865189139e+03  2.6428028486503822e+03  2.6426749858478224e+03  2.3685396455874061e+03  1.9207993317895193e+03  1.8552171563718828e+03  1.8341170472503791e+03  1.9678296623322442e+03  1.8511389138597851e+03  1.8604901062219349e+03  2.1682052989027547e+03  2.2138827848568085e+03  2.1778784903761552e+03  1.8132824067751735e+03  1.8184852489170546e+03  1.8093847915015388e+03  1.9616316263299414e+03  1.9791694657856308e+03  2.0488737980354786e+03  2.0331990428089803e+03  1.7536905454628986e+03  2.1796196244742350e+03  2.0796512121940877e+03  1.6990765347453325e+03  1.6893931881229157e+03  1.6902419501151810e+03  1.6542578377811058e+03  1.6437690057303021e+03  1.6431921370516759e+03  1.6875225273217995e+03  2.1589769994143344e+03  2.1701606353512980e+03  2.1289109494533632e+03  1.6770061067449960e+03  2.5678948909428836e+03  1.4834878902399844e+03  1.6828292953245582e+03  1.6949961260855198e+03  1.7122076494313135e+03  2.3029753159319862e+03  1.7060073842476513e+03  1.6986763044064776e+03  1.7083443857301477e+03  1.9129867097132283e+03  1.8992760578555637e+03  1.8287209713153541e+03  1.6775556081173240e+03  1.6752121493751013e+03  1.7266715037226984e+03  1.9817741119579798e+03  1.7416982611966205e+03  1.6983618240182718e+03  1.6936980176610080e+03  1.6992852172589160e+03  1.8217528946788657e+03  2.0952518871487905e+03  2.1098304240757816e+03  2.0595676018819859e+03  1.8506870462607083e+03  1.5349551033359489e+03  2.1323732378278128e+03  1.9411101535405096e+03  2.0069164630557798e+03  1.9573500153164334e+03  1.8433812539448052e+03  1.8477700596915038e+03  1.8420214405773343e+03  1.7736141705507380e+03  1.7826822207146499e+03  1.7657138556192322e+03  2.3422124177051460e+03  2.3741903833405681e+03  2.3245426867108690e+03  1.9337373819519541e+03  2.0358272056375545e+03  1.9298836970353034e+03  1.4669859022494368e+03  1.4538107652340784e+03  1.7052022061838527e+03  1.7100971556775919e+03  1.6841502189376897e+03  2.0313808524880042e+03  2.0266733380802664e+03  1.9892048509196964e+03  2.6160099015597898e+03  2.8987642759941027e+03  1.8104950229368726e+03  1.8221083032684651e+03  2.0052902759901062e+03  1.6808300707129117e+03  1.6900216367987766e+03  1.8169932027645391e+03  1.8011004366738414e+03  1.8027710715533613e+03  1.5894924113091936e+03  1.5825552954619873e+03  1.7558808898939014e+03  1.7551213449035854e+03  1.6002178234815185e+03  1.9997593134349700e+03  2.0331914396319974e+03  1.8555103060782315e+03  1.8265125151618417e+03  1.8254186744048366e+03  1.9482512287654520e+03  2.1985433738223692e+03  2.2712821496198571e+03  2.3145624848778953e+03  1.7485538701139442e+03  1.7499470083002275e+03  1.8377268532482790e+03  2.1433999649691877e+03  2.2670017038388128e+03  2.1072711279628852e+03  2.1758852011658273e+03  2.2257447852621754e+03  2.1411423895833705e+03  2.3185720980979004e+03  1.7660590863260372e+03  1.7799896975765621e+03  1.7715551060102307e+03  1.5461776593820393e+03  1.9953680960390789e+03  1.8171331091638358e+03  1.8592452342983656e+03  1.8374056204877804e+03  1.8162464468438241e+03  1.7806253494537700e+03  1.7083027116869234e+03  1.8671323999509482e+03  1.9036695199844235e+03  1.8575457532201481e+03  1.8569586091867468e+03  1.8200462094600641e+03  1.6704994429021747e+03  1.6930352487650871e+03  2.2582474187941020e+03  2.0837498117544660e+03  1.8053667551702454e+03  1.7846182970532577e+03  1.8705889962910062e+03  1.9207600187625642e+03  1.6946187661876411e+03  1.7204065509710724e+03  2.2767917220166173e+03  2.1290543859282325e+03  2.2496730711601053e+03  2.7981315243242884e+03  1.8654122206994443e+03  1.8849215162648991e+03  1.8766207027201735e+03  1.7424048197678542e+03  1.6952517966422124e+03  1.5607566526845956e+03  1.6388919329609741e+03  1.5591808820470353e+03  2.1049098491365180e+03  1.7252915145655797e+03  1.5682846911387653e+03  1.9386316872804759e+03  1.8324179222589123e+03  1.8209460766614418e+03  1.8951602972572150e+03  1.8711494323058946e+03  1.9395286442540284e+03  1.7720362901854155e+03  2.1276865052802650e+03  1.7350030754365632e+03  1.8226345307955403e+03  1.8379164331772929e+03  1.6806057536813676e+03  1.8455143095364992e+03  1.7739663622683868e+03  1.7712899565153448e+03  1.7764225703233308e+03  1.7766642767103522e+03  1.7008504634886237e+03  1.7470220589627504e+03  1.6233605780107057e+03  1.7840573916478252e+03  1.7885205933434186e+03  1.4820378902711716e+03  1.4981942977094611e+03  1.4724218505746451e+03  1.5417554218161094e+03  1.8090347229280121e