<?xml version="1.0"?>
<VTKFile type="UnstructuredGrid"  version="0.1"  >
<UnstructuredGrid>
<Piece  NumberOfPoints="2756" NumberOfCells="4911">
<Points>
<DataArray  type="Float64"  NumberOfComponents="3"  format="ascii">381132.8481945096 1523002.969494474 0  381338.0571422555 1522854.868640303 0  381100.8270039689 1522807.626636636 0  381006.226428371 1513043.225640772 0  380805.0638099784 1513125.003063222 0  380848.0578260962 1512896.434213388 0  379360.6728964231 1517923.830864767 0  379208.1260841243 1518129.753240262 0  379406.145891918 1518182.86712025 0  381115.3150174634 1518189.520084918 0  381336.0106060008 1518271.792296744 0  381116.6994630125 1518392.532522163 0  378185.2 1520462 0  378245.2 1520517.7 0  378127.2477709518 1520622.483792013 0  380683.3697071038 1521901.097622266 0  380568.3240360337 1522066.739715079 0  380802.1955744097 1522111.880122961 0  380269.9467976058 1522762.274681908 0  380243.7012214905 1523012.274697849 0  380414.729996858 1522851.434535827 0  383408.6180978718 1522516.361322971 0  383546.6924531885 1522697.820042272 0  383360.3419445077 1522759.432082263 0  379430.8 1516696.3 0  379297.7 1516577.5 0  379476.3712921838 1516509.416159902 0  381732.0748088956 1516086.011831138 0  381527.7149676714 1515932.486699072 0  381745.1062556971 1515844.912061844 0  375743.2536647741 1518327.633027924 0  375647.805328818 1518108.824715752 0  375857.0807929152 1518195.089294348 0  383955.2 1518742.3 0  383924.3 1518903.5 0  383835.7623226807 1518704.926957244 0  381953.2 1515399.3 0  382089.2 1515417.3 0  381984.4764698262 1515578.761860147 0  381136.6787989419 1517622.143430421 0  381065.8205527377 1517414.951465063 0  380970.3891828283 1517584.03020747 0  381078.5898254366 1523209.767395736 0  380909.1370683986 1523102.466608905 0  382188.253468525 1514472.476234976 0  381987.3517762316 1514605.028148611 0  382004.804059681 1514371.588711992 0  381557.2995085699 1514966.852877108 0  381415.4708147333 1515114.465640779 0  381342.717441313 1514878.810690856 0  379891.630506651 1515484.920384602 0  379914.9303519402 1515305.147270819 0  379700.3410664618 1515395.594771678 0  380904.1988638599 1522898.992304761 0  380398.4695234063 1518432.223557568 0  380627.2779262392 1518485.828690855 0  380531.7473784017 1518623.753206566 0  384034.6608035758 1522640.329183416 0  384214.8699485139 1522702.311654604 0  384113.5895920917 1522476.602094412 0  377843.6661891531 1515638.579773938 0  377873.9156747229 1515901.512738381 0  377688.2461373045 1515759.026020743 0  378660.4566965842 1515076.744245254 0  378428.1844890781 1515119.594056058 0  378470.3738697512 1514942.14016793 0  380741.8649044938 1516366.031673378 0  380994.9976600878 1516260.217403548 0  380939.5838307368 1516443.221560156 0  383411.2 1520442.7 0  383224 1520373.9 0  383372.1978776808 1520274.104664547 0  381260.6240208659 1517488.906032594 0  381471.5793415913 1517599.352681893 0  381266.7101013901 1517725.18491111 0  378746.8182314756 1520688.389045444 0  378675.9177977621 1520900.239550582 0  378535.5059380529 1520798.442559511 0  378394.9455750583 1514244.599080242 0  378449.8946502131 1514031.053369917 0  378574.4390201942 1514199.085636147 0  379030.3703672636 1514930.026223515 0  378809.8126729259 1514916.799065131 0  378908.0173984388 1515124.002530093 0  381924.1804336655 1519848.506730964 0  382070.1291345952 1519640.332260843 0  381815.3462283251 1519690.483518803 0  381877.8583184913 1519477.721818394 0  380843.075611213 1516182.701454373 0  377537.2555830219 1515567.508644517 0  377315.2897831545 1515513.727730773 0  377495.3987846794 1515362.099266658 0  380990.6175768265 1520808.791431453 0  381180.5593875027 1520875.545620744 0  380965.5438001876 1520960.854387447 0  379175.4859801811 1517958.685043537 0  381657.2 1515253.7 0  381801.2 1515341.3 0  381681.0249801798 1515445.19385653 0  382837.5 1514636.3 0  382719.2 1514678.3 0  382651.585190931 1514541.23123663 0  381365.3397622496 1521302.110841844 0  381173.8165702133 1521391.166751647 0  381324.7861896669 1521494.03732944 0  377487.2 1516387.7 0  377597.2 1516475.7 0  377420.9763942952 1516583.229505466 0  382769.8434317347 1523916.275711101 0  382523.0131554338 1524000.179057586 0  382588.8017273311 1523766.010037901 0  380415.6802735555 1515277.103834966 0  380534.2629263023 1515373.750629143 0  380615.4445543762 1515176.625170087 0  379607.7 1513166.8 0  379684.5 1513031.7 0  379773.8484837147 1513227.927016554 0  380468.4147114399 1515087.580642533 0  381279.6714154714 1522670.588039799 0  382791.986869641 1513605.195382937 0  382945.5296286712 1513465.975928865 0  383005.6847487807 1513666.355228624 0  380587.208374173 1518346.936303897 0  381066.6826994419 1516028.07274255 0  383688.9098871482 1523874.991036592 0  383841.2776636996 1523896.97106414 0  383816.2971629929 1523689.575473786 0  380879.1844274054 1518456.326428152 0  380756.810245833 1518638.187272127 0  379234.4396188496 1524237.41355402 0  379094.6394206512 1524405.577297573 0  379003.9450860478 1524199.437734519 0  380132.334319414 1524751.906987656 0  380330.8395303916 1524711.888812631 0  380196.6483640434 1524537.094617073 0  382921.2 1512811.3 0  383111.2 1512801.7 0  383024.8029546599 1512888.005369809 0  381350.8997291102 1516740.004564695 0  381179.5549085469 1516884.485910123 0  381161.2238962245 1516659.691216734 0  377335.250979741 1516978.525097729 0  377507.1146876515 1516792.586730807 0  377335.2188897606 1516760.55035147 0  380441.7462455225 1523007.730086568 0  381606.3149008715 1515670.833480006 0  381143.7310861478 1521074.102048449 0  383647.2 1524072.7 0  383775.2 1524057.7 0  380202.1422865971 1519475.02359036 0  379975.901196 1519378.933275257 0  379983.0988174871 1519527.22466434 0  382970.0408729046 1522215.911350016 0  382761.3300385343 1522296.069380894 0  382793.7900572721 1522101.053478742 0  380828.7 1525572.8 0  380839.7 1525444 0  380656.6777187333 1525493.586054695 0  380889.8151343891 1516008.282751372 0  380078.3874647535 1518228.009651038 0  380302.7133713772 1518197.568723889 0  380151.6023988136 1518042.880161158 0  381216.5866019003 1521229.173312577 0  382856.185294751 1522965.63341434 0  382757.1055942607 1523184.966693557 0  382642.892790422 1522981.930935778 0  377530.4496674888 1517023.45370742 0  375859.2807621637 1518617.340275958 0  375723.9272779689 1518798.871377308 0  375883.326900385 1518835.65611793 0  380757.9597679956 1518332.596959953 0  382080.929067928 1518165.826094281 0  382149.7677297026 1517950.257456156 0  381951.9477203974 1518011.871528924 0  380272.3444541534 1515787.205817882 0  380320.8816570968 1516011.511395629 0  380113.2709761026 1515858.518344478 0  378032.6447889569 1515753.255978216 0  379421.8869711594 1523948.610492724 0  379640.0462347057 1523860.430685563 0  379431.1707879588 1523752.155926062 0  378025.3435621529 1520857.219650026 0  378198.9151342391 1520835.078132307 0  380623.1782962393 1519503.677629183 0  380422.1490956132 1519606.763638367 0  380646.3335252591 1519722.271771401 0  380476.8692891017 1519799.986456953 0  381698.5801553232 1522110.992607313 0  381823.3754331729 1521965.912219836 0  381905.209373827 1522161.852322485 0  383231.4790099824 1522608.653918072 0  380569.5269372251 1521699.580039684 0  380456.6212457299 1521792.468348222 0  380441.0497392764 1521945.386802009 0  378097.9402495216 1519438.836649175 0  377897.2808868021 1519438.163458873 0  378015.5925372721 1519657.103233225 0  379240.4482384928 1518348.628731092 0  379101.5107170234 1518515.956095773 0  379309.2960311403 1518557.423754058 0  376602.0415677593 1517331.704880342 0  376405.646887949 1517266.906971252 0  376604.3736852485 1517110.622067226 0  376389.1531143626 1517062.316879417 0  382659.3949508357 1514324.692229536 0  382817.9934846218 1514438.349332366 0  382846.6524026072 1514193.023556729 0  381870.7171352024 1523061.569260952 0  381841.2368633775 1522836.020800953 0  382014.663836404 1522892.486055208 0  379955.7020923612 1522736.824460503 0  379723.6102638948 1522728.726967993 0  379881.5405186305 1522875.860100716 0  379992.4072553897 1516391.757601717 0  380074.8249143763 1516599.73488394 0  380210.8593172977 1516495.348514417 0  382939.0778999142 1514326.569301511 0  380425.5508180095 1519373.10188626 0  381604.9372215627 1524256.575821479 0  381400.4593655768 1524340.880286145 0  381470.2264694679 1524125.801696274 0  378054.5 1519159.7 0  378139.1 1519099.1 0  378184.7946302334 1519271.035008067 0  380194.3431958627 1519285.547275192 0  379385.7494196121 1515126.292007208 0  379471.3682234275 1514927.587698711 0  379249.7735345896 1514933.344183152 0  376955.2 1518980.7 0  376798.8 1519104.7 0  376775.4982364908 1518922.228126186 0  382527.9866427068 1522799.179297257 0  382736.9216083986 1522765.947592632 0  384655.1459267635 1523229.989541015 0  384442.9065779765 1523338.144486324 0  384637.4791078825 1523448.403934124 0  384448.2868301938 1523561.778401528 0  379829.8676797987 1522614.416467188 0  381140.1294017129 1520342.738893406 0  381403.9598020584 1520426.195448618 0  381314.7388831928 1520238.0494242 0  380196.4939012315 1516326.831617291 0  380011.0690510017 1516186.042730292 0  380419.2981205012 1523206.948412003 0  380212.0110392965 1523267.61678974 0  377703.5964462604 1515542.50936791 0  381247.2652474671 1520521.406041619 0  379289.9202508042 1515323.778417355 0  379165.6813773445 1515106.379857164 0  379069.0270186929 1515290.955210169 0  383404.3 1520120.8 0  383543.5 1520221.7 0  382367.9054404311 1523853.294138599 0  382287.2363976986 1524064.774115442 0  381314 1524619.9 0  381416 1524578.9 0  381285.8633749933 1524471.549762273 0  381299.7944129073 1523327.053787009 0  381471.9523574505 1523171.77460986 0  381248.4760904987 1523164.739784237 0  379713.9783636824 1514288.034360801 0  379489.6819553655 1514364.196488065 0  379568.2149402015 1514129.067824828 0  378262.3973400125 1514936.953572406 0  378201.9540953715 1515172.018072528 0  382467.8493660801 1514046.774039768 0  382656.94
[...]
<PointData  Scalars="f_33"> 
<DataArray  type="Float64"  Name="f_33"  format="ascii">1.3864868215764818e+03  1.3822149398504182e+03  1.3880793865174021e+03  2.1595082530660252e+03  2.0674322222133142e+03  2.1682669928031492e+03  1.6477214660355094e+03  1.6477377170701711e+03  1.6408283513977256e+03  1.8020777966958647e+03  1.9587213506563678e+03  1.7832641345222542e+03  1.9660936998840061e+03  1.9252885064328441e+03  1.9029207044783934e+03  1.4250079921877639e+03  1.4203492667083704e+03  1.4140932581232476e+03  1.4042384912004175e+03  1.4084208939770119e+03  1.4029391931540079e+03  1.3281068134261425e+03  1.3198032217553900e+03  1.3258375790427185e+03  1.8285054585407224e+03  1.8725294992583574e+03  1.8022123594257591e+03  1.8283494402008819e+03  1.8341160026422835e+03  1.9272963127923133e+03  2.0913770169523696e+03  2.0668297058523908e+03  2.0528542860570228e+03  2.3189218448262541e+03  2.3612110679937618e+03  2.3008833818409466e+03  2.0642154278623557e+03  2.2227451740505130e+03  1.9882830507424317e+03  1.7199812927070636e+03  1.6690330886202669e+03  1.6555441850443633e+03  1.3845732072681249e+03  1.3878255041456387e+03  1.9435423928597370e+03  1.9427274234631182e+03  1.8931510198266719e+03  1.9380349823012712e+03  1.9182394030386247e+03  1.8556875009603734e+03  1.7584712536043455e+03  1.7583464063979904e+03  1.7549637665466869e+03  1.3925827395657548e+03  1.6055261679722037e+03  1.6054436357060135e+03  1.5952478729755794e+03  1.3059276908538463e+03  1.2953028883828640e+03  1.3016881687328387e+03  2.0343860152051207e+03  2.0841575464443308e+03  2.0905192763649807e+03  1.9397391127715405e+03  1.9950197299200490e+03  1.9832340092216241e+03  1.7043650149717871e+03  1.7027175315270299e+03  1.7057821484078631e+03  2.0718733134410677e+03  2.0285037118644791e+03  2.0500962919866274e+03  1.7674954488045973e+03  1.8203331950043407e+03  1.7771375765694438e+03  1.7136416246025317e+03  1.7214741753162484e+03  1.7376553625787340e+03  1.9168623225611773e+03  1.9106903911124889e+03  1.9033897671141945e+03  1.9121170909203936e+03  1.9106892487336172e+03  1.9282428825522056e+03  1.6816544468395657e+03  1.6924833789150769e+03  1.6793834103504007e+03  1.6659423545763962e+03  1.7100069838265078e+03  2.0726340153186479e+03  2.0924862105095472e+03  2.0710568737115477e+03  1.4767035147454289e+03  1.4628582814223714e+03  1.4672912051419571e+03  1.6548457658018651e+03  1.9753604756280392e+03  2.0070143459027584e+03  1.9410590148788826e+03  2.1487819772847192e+03  2.1147617979246443e+03  2.0286692204972667e+03  1.4200544837946393e+03  1.4308428604519129e+03  1.4209927804285433e+03  1.9931430429374670e+03  2.0170744483283627e+03  1.9216531503590991e+03  1.3527835928210111e+03  1.3648850025734007e+03  1.3555518410914267e+03  1.7549563501637062e+03  1.7528431647984619e+03  1.7611282913877924e+03  2.1945254066440557e+03  2.1611827611305816e+03  2.1320981399769476e+03  1.7671723910807855e+03  1.3846000742869287e+03  1.9893461161591006e+03  2.0810948037614330e+03  2.0628314324320404e+03  1.6152088092381466e+03  1.7069421459737700e+03  1.3237319995403293e+03  1.3131100596917074e+03  1.3039735712505505e+03  1.6169024228051028e+03  1.5913524397550386e+03  1.4552555444993920e+03  1.4577955848958970e+03  1.4598947578044997e+03  1.4306472351500563e+03  1.4518626574450041e+03  1.4328121513566555e+03  2.3597173314846000e+03  2.4218336799798030e+03  2.3270516769804940e+03  1.7110654522377970e+03  1.6983349390631477e+03  1.6920943803286534e+03  1.8706307458116778e+03  1.8903331834686617e+03  1.9103465529569637e+03  1.4021529883853348e+03  1.9167135844188454e+03  1.4510959457289237e+03  1.2997532395980486e+03  1.3086853188165555e+03  1.5764268537971507e+03  1.5816234011929619e+03  1.5688739983994958e+03  1.3394751263295188e+03  1.3493066484541198e+03  1.3473539141489871e+03  1.4953053185489139e+03  1.4904284153780702e+03  1.4940090831555376e+03  1.7176725174558053e+03  1.6184094056233967e+03  1.6170483350118805e+03  1.6272279046575013e+03  1.4359153667923827e+03  1.3397858778219775e+03  1.3437382521440602e+03  1.3453613124163965e+03  1.8460648234575028e+03  2.1223012221503191e+03  2.1502950074841283e+03  2.1294540848495276e+03  1.6162831692780419e+03  2.2003832923230393e+03  2.2089634667431537e+03  2.2419310305467629e+03  1.7396475924399285e+03  1.7284714694045622e+03  1.7410415939435379e+03  2.0304993124836483e+03  1.4407243858611287e+03  1.4338212596642893e+03  1.4441496673006402e+03  1.8389211576664718e+03  1.8021263308535431e+03  1.5527935100243060e+03  1.5601175702502680e+03  1.5393016766940689e+03  1.5408484693030996e+03  1.3923112144617517e+03  1.3896614719780953e+03  1.3849295820493298e+03  1.3226831717752746e+03  1.4319233783243951e+03  1.4302054766299366e+03  1.4257621128788969e+03  2.0125247134233148e+03  2.0345729936686901e+03  2.0361718949007673e+03  1.6325274485364228e+03  1.6518591369861708e+03  1.6424173562262788e+03  1.9277334687478726e+03  1.9331282814988267e+03  1.9453164946629311e+03  1.9587824159182205e+03  2.0012927593129627e+03  2.0323835710773844e+03  2.0145316242489164e+03  1.3651413792242149e+03  1.3687235993166969e+03  1.3647534336984463e+03  1.4085045693651721e+03  1.4164422276073217e+03  1.4187310290236667e+03  1.7048268426174272e+03  1.6915593456210279e+03  1.6910841485327560e+03  2.0272661215384635e+03  1.5715828033425703e+03  1.3882356395969191e+03  1.4016484624601189e+03  1.3924568969409133e+03  2.0056725510147410e+03  1.9849392080437092e+03  1.9949381263036730e+03  1.5831263994798198e+03  1.8462775970814550e+03  1.8691402477069441e+03  1.8874298694428119e+03  2.0265436971690558e+03  2.0671390979579187e+03  2.0297976353238189e+03  1.3516753343286073e+03  1.3438743371019339e+03  1.2833286326550933e+03  1.2877113214107378e+03  1.2809672385888537e+03  1.2803459902647735e+03  1.4096981462144302e+03  1.4948512914180101e+03  1.4885106437527797e+03  1.4990560763502381e+03  1.7039741247384979e+03  1.7208060381139467e+03  1.4064313365918865e+03  1.4140398151535494e+03  2.0482120768616710e+03  1.4834889778023246e+03  1.8756638242774450e+03  1.8789403292875334e+03  1.9190560567507716e+03  2.1177670818197575e+03  2.1439929282542157e+03  1.3656434058097564e+03  1.3678999943719507e+03  1.3916476026012015e+03  1.3961885630734287e+03  1.4059904579659883e+03  1.3801346998396082e+03  1.3747904168961070e+03  1.3797754001309988e+03  1.8376263595109456e+03  1.8566802154194040e+03  1.8479790200464411e+03  1.9984107117724150e+03  2.0178421758115153e+03  1.9560229595220867e+03  1.9576011058719646e+03  1.9329393069108071e+03  1.6534658221888633e+03  1.6874136900532008e+03  1.6495716124252460e+03  1.2975663348654161e+03  1.7022278810967209e+03  1.7434306216816885e+03  1.7547148189880920e+03  1.7323255562503466e+03  1.7354110363456798e+03  1.3743112784376456e+03  1.3764304894466577e+03  2.0154929395234162e+03  1.7146921675635595e+03  1.7042360807672053e+03  2.1752048146252996e+03  2.1027731429218939e+03  2.0663596554727246e+03  1.8024967896156270e+03  1.7605822163504849e+03  1.7077054239665081e+03  1.3672402757716004e+03  1.5686120499903734e+03  1.5601685645554985e+03  1.5714774475344691e+03  1.5700409287725315e+03  1.9241784301569401e+03  1.9677968908050441e+03  2.0488380553892566e+03  1.9893949263582476e+03  1.6323563323365609e+03  1.9847441513468443e+03  1.9869313060868762e+03  1.3515470272115115e+03  1.3563654648264946e+03  1.3567887614038971e+03  1.3605047627304425e+03  2.3877437390974719e+03  2.3611550899311496e+03  2.3027478485279248e+03  1.6644201282907281e+03  1.6803583248114342e+03  1.6452245004438250e+03  1.3725159785200685e+03  1.3664106797002059e+03  1.3707080286445321e+03  1.3692234181979402e+03  2.0715057973192756e+03  2.1833973395944581e+03  1.3795406521660605e+03  1.5077684967477046e+03  1.5017839573235476e+03  1.4151223726393728e+03  1.9950031510410922e+03  2.0234037871686744e+03  2.0052249091628212e+03  1.7306012462323515e+03  1.8956585147891772e+03  1.9054971291522575e+03  1.8909668223301762e+03  1.9392822397974355e+03  1.6441728687945979e+03  2.0177288261591548e+03  1.9703767741703859e+03  2.0600887672510921e+03  1.9429002885883708e+03  1.9113508106833938e+03  1.9363559138681974e+03  2.2532435903591836e+03  2.1604321918332453e+03  2.0774031624451368e+03  1.9992444565841868e+03  1.9962362081890517e+03  1.8651416060602364e+03  2.0012383800064858e+03  2.0120025349216551e+03  1.9681456670024870e+03  1.7333127799789747e+03  1.8582742207731137e+03  1.8673748059971449e+03  1.8633123289274990e+03  1.7933418752491768e+03  1.8682133110501452e+03  1.8304963369979646e+03  1.3925741996053796e+03  1.7582196089817098e+03  1.7875610915307541e+03  1.8289169504288354e+03  1.8726280598054966e+03  1.7005854279012433e+03  2.1361119960506753e+03  2.0168955364220133e+03  2.0239247928527168e+03  1.9940826551264217e+03  1.5323601576898955e+03  1.5419103395611432e+03  1.5421709987122777e+03  2.0840420828084793e+03  2.1639171543745938e+03  1.8719426034888606e+03  2.1991335215107974e+03  2.2088043364473019e+03  2.1468180152714781e+03  1.3796001776648404e+03  1.3865576794509197e+03  1.3479107455659591e+03  1.3384109818162265e+03  1.3322607586702663e+03  1.3426752514944733e+03  1.6886495366857864e+03  1.6831254712841214e+03  1.6768438082141190e+03  1.6804934323048824e+03  1.6767679217166929e+03  1.6875157806837285e+03  1.4087645464338786e+03  1.9299784085906226e+03  2.0335981640382818e+03  1.9321916012764816e+03  1.8270037947893661e+03  1.8712614112764788e+03  1.5241244492545288e+03  1.5255426318052816e+03  1.5342477486116595e+03  2.0062363019795494e+03  2.2007072223737046e+03  2.2836040302393571e+03  2.1335008386627173e+03  1.8861025481271392e+03  1.3987130019712720e+03  1.4106410277251907e+03  1.4018535125064086e+03  1.4117506698931727e+03  1.9964044455184533e+03  2.0090307146299194e+03  1.9706088756059455e+03  1.8311469101737566e+03  1.8742607972708104e+03  1.8305379870441968e+03  1.3382584173348187e+03  1.3503097938964629e+03  1.7988116075694149e+03  1.8039172154393875e+03  1.8077364679323280e+03  2.0141791299031943e+03  2.0399764791369614e+03  2.0590249820741242e+03  1.7488776971585210e+03  1.8108175303852261e+03  1.8149565277766139e+03  1.8355411415268297e+03  1.9715566053347211e+03  1.3423887289314048e+03  1.4321627349310936e+03  1.4377482393131147e+03  1.4363437191900916e+03  1.8084713706844771e+03  1.8251449354057991e+03  1.8930955588557144e+03  1.8658527942893252e+03  1.7660831716729833e+03  1.7360394408869965e+03  1.4050545216826088e+03  2.0715314099658231e+03  1.9017104540378211e+03  1.8120839244852691e+03  1.8207474372056797e+03  1.3419753380317923e+03  1.4438500183478384e+03  1.8714821737182408e+03  1.4325172399046724e+03  1.4361335639677991e+03  1.4423631149799883e+03  1.4751562919237008e+03  1.4814632729226746e+03  1.4713767834451664e+03  2.2722677540830191e+03  2.2503518570274364e+03  2.1813132812678596e+03  1.8278238687788889e+03  1.7995880983499503e+03  1.8052265234714168e+03  1.2635861554421381e+03  1.2733395474034303e+03  1.2715521768923898e+03  1.6640131540031880e+03  1.6762930002485875e+03  1.8331750035402108e+03  1.8504600452487734e+03  1.6716818265893085e+03  1.6800846931398498e+03  1.6708265995560507e+03  2.1238119754616232e+03  2.0951078155196569e+03  2.1185239469291082e+03  1.9001576841804069e+03  1.7999113401880284e+03  1.3138308329268011e+03  1.3158845285318382e+03  1.2966056224878039e+03  2.0216189175690283e+03  1.9466861635325354e+03  1.8477226034133807e+03  1.2851372065852217e+03  1.2739459974287008e+03  1.9672141854370263e+03  2.1118125296201702e+03  1.9785064080434292e+03  2.0463128259806381e+03  1.7713502146608823e+03  1.3673072826744674e+03  2.4398407718914709e+03  2.4086513831778843e+03  2.3712249259401942e+03  1.7714699980896178e+03  1.7951802561126233e+03  1.7891183344442597e+03  1.8021648692016020e+03  1.7730225557113315e+03  2.1225663453189891e+03  1.9138022665981332e+03  2.0916514592076496e+03  1.8801358984952246e+03  1.8881343158978968e+03  1.8755567110292884e+03  2.0586229483456732e+03  2.0435878473011398e+03  2.0611930869581238e+03  1.3767907433407599e+03  1.8106702255357304e+03  1.6665898020887792e+03  1.6599991747061792e+03  1.6434001133348640e+03  1.6706617696232222e+03  1.6447028353702467e+03  2.0453507375679892e+03  1.5509621596647919e+03  1.5340975584072503e+03  1.5757770325103791e+03  1.6133240344813214e+03  1.9281777049417601e+03  1.3436142720723456e+03  1.3267338845677511e+03  1.9824641906469308e+03  1.9661321731965597e+03  1.9398272112921863e+03  1.3324154168273169e+03  1.8775924301712039e+03  1.8824491078022638e+03  1.9014760711993003e+03  2.3768046682381723e+03  2.4314961733068199e+03  2.2696222562607186e+03  1.6479564081857779e+03  1.8752402087695605e+03  1.9144141083911295e+03  1.9502211639701427e+03  1.9569638766710345e+03  1.3916352912614479e+03  1.3891442091413135e+03  1.4001585821051729e+03  1.8839771151501329e+03  1.8526195750818149e+03  1.8789971892350968e+03  2.0684419394114757e+03  2.0516720154124159e+03  2.0480145139158863e+03  1.4574225483431992e+03  1.4600977983929165e+03  2.0957123752793868e+03  1.6979980918173262e+03  1.6679397467692340e+03  1.6916119131250257e+03  1.4400636847279950e+03  1.4406190069408690e+03  1.8004609911439907e+03  1.3967003945369172e+03  1.3909803818052321e+03  1.3862055951414825e+03  1.3842518753746940e+03  1.6827893194828239e+03  1.7179016575111186e+03  1.6798936742183855e+03  1.6590398501934490e+03  1.4132047984276701e+03  1.3970638581865990e+03  1.3945909242053146e+03  1.3594008806189156e+03  2.1921752003183619e+03  2.2157990421048466e+03  2.1725822895564734e+03  1.9942669882614350e+03  1.5862078769918980e+03  1.5767099924143208e+03  1.4305459970807292e+03  1.6670426542992489e+03  2.1763610366852035e+03  2.2048140402472450e+03  2.1316141262660876e+03  2.1466582767341356e+03  1.4109454995371239e+03  1.4058306619892649e+03  1.4107697647855655e+03  1.4047873067571536e+03  2.1600075805571219e+03  2.1250685928871276e+03  2.1924539783039386e+03  1.4211223212019331e+03  1.9373829592726850e+03  1.9404940244935131e+03  1.8862321838739165e+03  1.4238329903043796e+03  1.5565199911773350e+03  1.6920966057128423e+03  1.6971036567526103e+03  1.7010485244773947e+03  1.4078557343947368e+03  1.3284955507647333e+03  1.3150727258596510e+03  1.3227314074538269e+03  2.0784726714007293e+03  2.0038997067451353e+03  1.7188060576314217e+03  1.8596741082755000e+03  1.4170670155966536e+03  1.3964095783756493e+03  1.4104479837691504e+03  1.7444043492442338e+03  1.7361352686774430e+03  2.1043446620175723e+03  2.1517866402261020e+03  2.0369344013954828e+03  1.4622629436976417e+03  1.4850286923595681e+03  1.5834996019579776e+03  2.0269486111102065e+03  1.9476153064470520e+03  1.7836838187537442e+03  1.7662162932584874e+03  1.8039058977306634e+03  1.8016377031697543e+03  2.0140901739402532e+03  1.9595889438932172e+03  1.9543416360606593e+03  1.9717402635800640e+03  1.7465413620393792e+03  1.8058511372839907e+03  2.3831587097205661e+03  2.4186742889202856e+03  2.3589438188877029e+03  2.0895900013101241e+03  2.2273426732814492e+03  2.3192587411174204e+03  2.1700993656630017e+03  1.4282383124672624e+03  2.0803205523463262e+03  2.0909050622912605e+03  1.3174032018199803e+03  1.3177589992882702e+03  1.3198697726922596e+03  1.4535727733319707e+03  1.6160572330595546e+03  1.6732068445220737e+03  1.6055500020894629e+03  1.6190300357007416e+03  1.6088416714611631e+03  1.5552602098454072e+03  1.3852768160163023e+03  1.3986650204054886e+03  1.3896829576507291e+03  1.4338431073791721e+03  1.5466310705638600e+03  1.6126744422303293e+03  1.5649380240539838e+03  1.9694708785259361e+03  1.9234032503942628e+03  1.9365748072871893e+03  1.3238599858126620e+03  1.3108057515262708e+03  1.3161673613922926e+03  1.2906115254661565e+03  1.2831540410328926e+03  1.2852190410323915e+03  1.6942977578599980e+03  1.6680031524090784e+03  1.7147998699920236e+03  2.0031918150414715e+03  1.9872668172429167e+03  2.0018111099233518e+03  2.0025632131689727e+03  1.3522338262335074e+03  1.6854020423404961e+03  2.2867567503136515e+03  2.1515920295731366e+03  2.2321942728622375e+03  1.7660888254487365e+03  1.8157669640120018e+03  1.8259117811642864e+03  2.3459488003029187e+03  2.3714475903983175e+03  1.3795043256089814e+03  1.7603264801454732e+03  2.3073188471675071e+03  2.3056578881790902e+03  2.1788003254720575e+03  1.2774143154589112e+03  2.1661472257553214e+03  1.3597108259895920e+03  1.3587345984831136e+03  1.4133760130283626e+03  2.0788360808576776e+03  2.0426237679484020e+03  1.6863528494110085e+03  1.8253115802602770e+03  1.7135460965262052e+03  1.9099618188825500e+03  2.1590374298217093e+03  2.2143824855751227e+03  2.2159865466610199e+03  1.8424063778096950e+03  1.8436285858375618e+03  1.8293468093129773e+03  1.8642235181380245e+03  1.4216510915621473e+03  1.4316658432075435e+03  1.4259032032162104e+03  1.4272017486258442e+03  1.8439300637488382e+03  1.8207802709307909e+03  1.8377847124758871e+03  1.9786487783191326e+03  1.7571761685207459e+03  2.2998361469629058e+03  2.2818184552618486e+03  2.2160289219612137e+03  1.7810705328157351e+03  1.5232291132905480e+03  1.5738278865385519e+03  1.5017773823740561e+03  1.6990772356219632e+03  1.3900712437215766e+03  1.3858114124269687e+03  1.4920923060065654e+03  1.4995476368526006e+03  1.5019056288064664e+03  1.4209278820799950e+03  1.4682509285111169e+03  1.4576455212817707e+03  1.4690127124783414e+03  1.8906226953945645e+03  1.6905218712987157e+03  1.6879625330115164e+03  1.3779849749685156e+03  1.4845326922509473e+03  1.5211649564823367e+03  1.4703442919555378e+03  1.5036793539492849e+03  1.5004096434213861e+03  1.9082513590132789e+03  1.9308074126666836e+03  1.8766364176762529e+03  1.9281470327177956e+03  1.9221350016959293e+03  1.4189717574980516e+03  1.4130683549243104e+03  2.0375246450417837e+03  1.5615583222802229e+03  1.6397683239550222e+03  1.5844435240170556e+03  1.9206420590052280e+03  1.8513944072464749e+03  1.9087837987973576e+03  1.8616059080416803e+03  1.5958414439159546e+03  1.9704001596691553e+03  1.9264328152594617e+03  1.9488143389697766e+03  1.9706437895996041e+03  1.3669406380466521e+03  1.3614484944661733e+03  1.5385130700078998e+03  1.6245374155501449e+03  1.3247052065276041e+03  1.8335398703540127e+03  1.8519737374549300e+03  1.8755948299510244e+03  1.9846081330860470e+03  1.9860494817762233e+03  1.4600437693612910e+03  1.9187983671980041e+03  1.8544805516440965e+03  1.4043853719714175e+03  1.4058123622147830e+03  1.9974777275609915e+03  1.9410687796361158e+03  1.9751454078271599e+03  1.9251451287758184e+03  1.6175351537568945e+03  2.2336366210299921e+03  1.4476150104828396e+03  1.4453409981588318e+03  1.4403592323318019e+03  1.3622470271783845e+03  1.3448589863273107e+03  1.4310650705504472e+03  1.4221325636362212e+03  2.0456514550035351e+03  2.0542870923012260e+03  1.9100174244103005e+03  1.9141123173831413e+03  1.4300276468200850e+03  1.3104078827384278e+03  1.9461376550876312e+03  2.0223789360191549e+03  2.3334290614969646e+03  2.3584203641399004e+03  2.1403866055503800e+03  1.8681172650516717e+03  1.8590713541090422e+03  1.8562609735216001e+03  1.8613066734039339e+03  1.8648194568213544e+03  1.3388365546623115e+03  1.4388557362219967e+03  1.4397485396991422e+03  1.8144486044344326e+03  1.8411016197703145e+03  1.8222021903416014e+03  2.0465225133189629e+03  1.7848099082780557e+03  1.8504500915856656e+03  1.8643836997543744e+03  1.8574695569543160e+03  1.9007310725309846e+03  1.4292387072218291e+03  1.4390271283852453e+03  2.0385115335615269e+03  2.0104480272130468e+03  1.9326211099544889e+03  1.4145218413106008e+03  1.4228684188969162e+03  1.4309049271413817e+03  2.1421375843825299e+03  2.1401080066568456e+03  2.1480565860956690e+03  2.1551035483286951e+03  2.0227593851199492e+03  1.9616550031945580e+03  1.9573969054342640e+03  1.4380560815126157e+03  1.4373862498350802e+03  1.4294334598411644e+03  1.3868402547296346e+03  1.3912617016595532e+03  1.3915005513798772e+03  1.9954704958329023e+03  2.2825512589942446e+03  2.2082394091533188e+03  2.0967871314511694e+03  1.6393552638625692e+03  1.6483053955431965e+03  1.6419886363799062e+03  1.6603070262981610e