<?xml version="1.0"?>
<VTKFile type="UnstructuredGrid"  version="0.1"  >
<UnstructuredGrid>
<Piece  NumberOfPoints="2830" NumberOfCells="4920">
<Points>
<DataArray  type="Float64"  NumberOfComponents="3"  format="ascii">388539.7 1514742.8 0  388606.8 1514599.7 0  388714.9334734196 1514757.295538267 0  385959.5 1516386 0  385957.5 1516498 0  385803.7407885602 1516490.320530061 0  391577.2 1514189.7 0  391703.2 1514325.7 0  391461.776110301 1514389.260756758 0  385715.3740558237 1522580.53191638 0  385914.9980456226 1522536.322733804 0  385837.1239973567 1522765.109030153 0  385716.3769001719 1523374.783555742 0  385498.9695755704 1523261.951289085 0  385688.4011306858 1523131.133023597 0  385488.8832113142 1523031.235753941 0  390963.060743388 1520306.508017111 0  390799.4269856266 1520469.605057966 0  390802.4835455896 1520259.692536682 0  387583.8787401881 1523012.102183412 0  387784.6637921995 1523082.418318884 0  387580.3565952152 1523189.030966714 0  388899.1429699745 1515044.519208372 0  388734.918378649 1515214.408264521 0  388636.0031336829 1515074.306466703 0  387590.8434332365 1521745.782797052 0  387399.2962382794 1521644.293059797 0  387609.3139437507 1521566.700870494 0  384282.4812445474 1522513.725206123 0  384214.8699485139 1522702.311654604 0  384113.5895920917 1522476.602094412 0  384983.3518757483 1522469.123070479 0  385146.5678824318 1522276.304840694 0  385209.6690433933 1522517.567156216 0  392090.8094419572 1521266.188942788 0  391905.8696874089 1521126.769600136 0  391901.3644900686 1521373.34199514 0  391129.7039998437 1515815.952202571 0  390966.0065516442 1516004.938588663 0  390968.9371115176 1515748.697250445 0  385806.2780318121 1522374.489050962 0  385365.5282188441 1523566.17357195 0  385161.6441908038 1523660.945778846 0  385139.0354184461 1523456.180049325 0  393393.4634959702 1522688.939056401 0  393173.3785446183 1522688.615400491 0  393321.8439729246 1522516.994841117 0  387691.2 1518592.3 0  387558.3 1518695.5 0  387513.6869725586 1518483.359882921 0  387949.2384695581 1521915.166653205 0  387876.4512319269 1522121.104774502 0  387741.3815044023 1521981.882576826 0  386479.6041342944 1517805.199713551 0  386283.1539775346 1517878.152530156 0  386327.5401136165 1517656.864252804 0  386095.9150240105 1517739.385584589 0  388013.7173407545 1514395.128351149 0  388168.7421904933 1514226.377987092 0  388223.3369745669 1514417.639532916 0  384655.1459267635 1523229.989541015 0  384637.4791078825 1523448.403934124 0  384851.5745205409 1523332.056428086 0  384934.0705630425 1523550.652636524 0  384967.4213328855 1523741.41595199 0  391950.8 1516214 0  391984 1516276.8 0  391849.0481996779 1516308.37904409 0  384336.8938733437 1516855.19693793 0  384266.5607570253 1516657.429896714 0  384139.9478529661 1516827.24752304 0  384041.0864915624 1516639.900436674 0  387246.9434652795 1518549.809879928 0  387165.7810892204 1518365.751413356 0  387052.9221947453 1518580.417862229 0  392761.8425024427 1522064.136701567 0  392991.0602796051 1522161.227451799 0  392939.2872709644 1521956.742495608 0  391098.099949792 1516395.857693629 0  391060.4005260778 1516195.530077367 0  390883.3912631608 1516349.480211717 0  389102.9346272714 1521940.147831639 0  389295.2028319321 1521794.297329793 0  389085.5382545544 1521713.805329105 0  389254.9528761144 1521577.005223669 0  384629.4743996708 1516711.739387267 0  384573.8425391976 1516527.105506992 0  384450.2671690275 1516704.064565487 0  391085.1033525547 1520647.379759239 0  391284.3435023229 1520580.442000031 0  391160.7724908218 1520414.491948576 0  391290.164540833 1515527.863999181 0  391505.8849133186 1515441.190455041 0  391266.048839645 1515349.596842534 0  396670.7360192415 1524303.600371954 0  396910.9395922969 1524269.101339772 0  396778.5167787529 1524123.067592887 0  390877.8235008612 1516790.114761605 0  390715.7442220995 1516921.525543035 0  390945.8724425539 1516955.498160951 0  390832.0862156531 1517093.465626914 0  390606.9251559877 1522203.702103175 0  390673.8688501425 1522425.800894604 0  390441.7519181859 1522292.771565949 0  390089.4306037152 1522959.778726473 0  390010.2562460944 1522746.626695848 0  390262.8706340973 1522819.388004508 0  391169.9343550139 1522716.258770412 0  391410.8885327555 1522785.868703609 0  391313.8337816519 1522588.902912606 0  387899.4323508798 1515854.563249835 0  388070.039090699 1515680.67749324 0  387864.3518600252 1515619.096396239 0  386549.5991132558 1522805.322744258 0  386508.6136055299 1523027.149597443 0  386338.8454503023 1522844.588766166 0  389845.7 1516639.2 0  389791.7 1516517.5 0  389963.8080006781 1516600.723685664 0  385345.5997056778 1523370.623656334 0  395938.5 1524326.3 0  395869.9 1524249.75 0  396012.1047098559 1524267.471576763 0  388733.1463231576 1514929.511447056 0  386478.3992532056 1516584.53978458 0  386464.3583984189 1516359.427652975 0  386614.2566352416 1516501.476776693 0  390828.5012251576 1513684.492136923 0  390578.8893823944 1513665.935447997 0  390724.0305446836 1513822.976846546 0  386966.918491939 1518427.257953324 0  388991.4552019534 1515935.734911302 0  389162.6992449689 1516029.17645076 0  389191.7643128068 1515824.61928087 0  388004.4691868922 1515446.063973414 0  386530 1514744.5 0  386698.3 1514784.5 0  386669.5618207033 1514926.997380896 0  387701.8457658654 1522904.526130697 0  392853.1972927429 1522241.345716074 0  388155.5118686854 1515275.727638824 0  388147.1769824181 1515532.64944205 0  388293.1906614315 1515451.763326872 0  390684.9250633547 1513520.681450744 0  394241.7729136363 1522177.794938567 0  394421.8390287936 1522018.053670921 0  394248.2593470229 1521932.149702253 0  390026.5937931744 1518399.680457792 0  390025.5755366744 1518655.377207813 0  389865.715073391 1518477.4506508 0  385572.0807740803 1515066.323803339 0  385777.6921283445 1514923.790547783 0  385750.9174996216 1515149.797503353 0  390051.3594815448 1516027.097800922 0  390043.6174137343 1516252.126079995 0  389896.4307100839 1516092.751282973 0  394072.4859667895 1522442.057137974 0  394299.5252553917 1522407.200029687 0  394127.3749830733 1522610.048537548 0  386821.3859741656 1522839.30254373 0  386712.259139554 1522661.044991347 0  394958.4573968287 1522260.394241058 0  395164.0783939189 1522338.122902643 0  394981.4186529827 1522459.962215469 0  385863.9013960641 1517701.533347221 0  385962.2557108557 1517913.902597109 0  387805.2 1518278.3 0  387778 1518457.5 0  387628.3111876079 1518343.11509099 0  386905.9566004391 1522578.782806499 0  387005.9318932953 1522788.09935559 0  387369.5 1520935.7 0  387278.5 1520881.7 0  387248.960520084 1521039.961693353 0  384300.5 1515756.3 0  384147.7 1515627.5 0  384307.1188698498 1515575.08517125 0  391294.4928962277 1522879.306920856 0  386931.2231254544 1518692.368155682 0  386795.6251139504 1518524.828966651 0  390710.5833946784 1516412.359590379 0  390793.7678028825 1516596.53430769 0  390378.8 1521223.3 0  390259.4 1521246.7 0  390401.7535836014 1521393.981456714 0  388492 1514852.8 0  388502.8 1514830 0  388597.4566762904 1514894.984555688 0  386365.3 1515986.8 0  386328.7 1516081.4 0  386476.4388744553 1515988.212714275 0  390083.4499767652 1522257.534933978 0  389857.1731965211 1522167.540531392 0  389984.2719414565 1522016.506275303 0  386420.8315859591 1519370.563857312 0  386311.2713229888 1519554.950708366 0  386475.1755046581 1519589.820167906 0  390048.3 1523255.5 0  389947.75 1523276.1 0  389967.4279318356 1523109.214084848 0  386209.6289416393 1519440.196486957 0  384410.3344756938 1516519.296750554 0  385380.3214416776 1516505.050173209 0  385590.1951437978 1516504.61259993 0  385448.8193687261 1516335.853272432 0  390902.6961806221 1522834.000527587 0  390949.6910214389 1522593.868134837 0  390766.2933288763 1522781.125029146 0  388138.3678670406 1521775.661012643 0  388152.5734510276 1522001.062709716 0  390972.4098319511 1516515.524630197 0  390731.6550040277 1522620.474964688 0  384178.3 1514572.8 0  384260.7 1514654.8 0  384092.9175415332 1514694.038767113 0  397904.7 1525523.2 0  397822.7 1525663.2 0  397706.3685110808 1525480.368997901 0  391534.1601314059 1514669.948913063 0  391457.1018372408 1514882.204798755 0  391303.7463652284 1514681.33481393 0  396644.6701065457 1524165.597492375 0  392318.3 1515827.5 0  392181.2 1515972.7 0  392150.4624945794 1515755.5586769 0  388323.4037581796 1515734.323366399 0  388543.0931071977 1515621.803715688 0  388569.6962280147 1515793.894844455 0  387365.7 1515999.5 0  387272.8 1515900.3 0  387478.9713642649 1515866.580333586 0  390181.2301938052 1518496.312114478 0  386047.3 1519247.2 0  386061.3 1519378.2 0  386241.9899612362 1519292.641530581 0  390211.62046851 1516176.233184951 0  394317.5512711704 1522610.721755669 0  387061.3100151045 1522971.43573017 0  386994.2739143138 1523214.757522574 0  386874.752613069 1523026.291318164 0  391232.4958937652 1514490.113674316 0  391041.6530867353 1514336.593998905 0  391088.4858934171 1514553.860864254 0  384800.2016030768 1522814.210071538 0  384634.7947796467 1522994.236505893 0  384852.3727816223 1522981.586860705 0  383463.0861541105 1517016.710046121 0  383505.7098103552 1516776.951894968 0  383632.3831391353 1516963.185273821 0  391416.0932608964 1515243.668142478 0  395412.3980190267 1522586.206445412 0  395594.8097193 1522675.000627529 0  395434.5233325348 1522837.744387911 0  388977.0897345204 1515733.6200847 0  389530.5 1517834.3 0  389448.5 1517742.3 0  389610.8773037432 1517687.299851321 0  388561.4321043688 1516867.645618212 0  388798.0229879221 1516910.861983849 0  388638.8458268811 1517090.381256995 0  387639.2778114074 1515898.939605239 0  387731.0219184323 1516049.102239147 0  387451.7 1517170.8 0  387402.5 1517259.8 0  387565.0448196105 1517192.216791584 0  385774.4123847951 1517474.426325427 0  385575.8570247293 1517384.215764499 0  385750.0962563544 1517271.144341147 0  393156.2660396229 1522531.743352954 0  385491.9803253137 1521858.776315798 0  385699.2917014376 1521759.771211687 0  385664.154496179
[...]
<PointData  Scalars="f_33"> 
<DataArray  type="Float64"  Name="f_33"  format="ascii">1.9966388377295314e+03  1.9762316954800149e+03  1.9154389868495666e+03  1.8499081043791614e+03  1.7315307569847514e+03  1.6709308169341862e+03  2.0551994402529704e+03  2.0246748286972363e+03  1.9515931227364763e+03  1.2329156877506227e+03  1.2285098175509092e+03  1.2321341685667503e+03  1.2347594165653995e+03  1.2328699551074089e+03  1.2245309959962703e+03  1.2362148023842715e+03  1.1129036312106293e+03  1.1067383441608420e+03  1.1252135398222761e+03  1.1693805212990337e+03  1.1621533964121397e+03  1.1712103469773692e+03  1.7707744401726545e+03  1.7841929812040426e+03  1.8731504711078019e+03  1.1586654228290545e+03  1.1673685687182401e+03  1.1632942095217318e+03  1.2948374056653543e+03  1.2953028883828640e+03  1.3016881687328387e+03  1.2463413696301111e+03  1.2457458608538327e+03  1.2488549425480492e+03  9.9586840977395468e+02  9.8581110336730569e+02  9.6848023515364650e+02  1.6394796601897822e+03  1.6222447387126522e+03  1.6701934078940608e+03  1.2333383791380911e+03  1.2616327537558459e+03  1.2608799150436191e+03  1.2568575105001248e+03  9.0462168100304598e+02  9.0434198092405063e+02  9.0780110062304857e+02  1.6771912731021559e+03  1.6323815099129611e+03  1.6188463415793087e+03  1.1566861164113409e+03  1.1697305871923127e+03  1.1521257882590239e+03  1.5386169373433806e+03  1.5402560901405616e+03  1.5537434121047766e+03  1.5504104515943404e+03  2.2393033463376328e+03  2.2809852546400775e+03  2.2664519396227884e+03  1.2833286326550933e+03  1.2809672385888537e+03  1.2731327743223333e+03  1.2662917238119517e+03  1.2715521768923898e+03  2.0426833659844146e+03  2.0183355889777633e+03  1.8838313259111360e+03  1.7689361660495902e+03  1.7864230383009365e+03  1.8036754929755955e+03  1.8138121805567421e+03  1.5856443723398240e+03  1.5986565323966638e+03  1.5611882346402210e+03  9.3073100345340856e+02  9.1441529911871805e+02  9.2443181459306152e+02  1.6147487104394056e+03  1.5916646683519602e+03  1.5678366339786660e+03  1.1114182292893811e+03  1.1029032403182080e+03  1.1130816885903700e+03  1.1118533684759541e+03  1.6987701808707568e+03  1.7134096570462757e+03  1.7352572969776829e+03  1.0753327673995595e+03  1.0643790391735913e+03  1.0856410374567668e+03  1.7751017804012370e+03  1.8223314573819862e+03  1.8012894456230358e+03  7.5246979169674034e+02  7.5477316874912128e+02  7.6510834921813955e+02  1.5413947568869494e+03  1.5290279970396195e+03  1.5753981292579288e+03  1.5162316424910525e+03  1.0515624978445792e+03  1.0309674738055737e+03  1.0300012524468561e+03  1.0647719803888051e+03  1.0641408322189093e+03  1.0558115272655039e+03  1.0262234149753722e+03  1.0308681537175380e+03  1.0103734262205603e+03  1.9105499700738176e+03  1.8912055038843821e+03  1.9249329939709219e+03  1.1988849140599639e+03  1.2012660316553670e+03  1.2050905398648028e+03  1.6408851011116046e+03  1.6773270210126398e+03  1.5748835806349489e+03  1.2567223281127106e+03  8.1955106359850799e+02  8.2538537962333589e+02  8.0366946707408772e+02  1.8657354455316040e+03  1.7689276116361666e+03  1.8812061291365212e+03  1.8975430675907471e+03  2.1068566426853195e+03  2.1646691888791797e+03  2.1005540180213484e+03  1.5679442151004407e+03  1.7529827503270690e+03  1.7588566157691321e+03  1.7341892988702257e+03  1.9066622458718964e+03  2.1919997104175472e+03  2.1604595175138456e+03  2.0888016873373476e+03  1.1605037905475401e+03  9.1472725164881410e+02  1.9205496466943032e+03  1.8600131292932335e+03  1.8465853939218757e+03  2.2152617018924066e+03  8.5409384306669426e+02  8.2745028668091197e+02  8.6564338989073576e+02  1.3159649142920493e+03  1.2960835492442873e+03  1.3084948131520355e+03  1.8120284108505969e+03  1.9733977327227292e+03  1.8331518569434320e+03  1.6178101559166553e+03  1.6134247760748644e+03  1.6179200100371047e+03  8.5684150693901211e+02  8.4953173546198639e+02  8.7852491393702064e+02  1.1928310180871090e+03  1.1997096826113138e+03  8.0296889516836143e+02  8.1707945203789097e+02  8.1174087610912170e+02  1.5626830800200757e+03  1.5442849226873966e+03  1.8689221087755616e+03  1.7880245157860431e+03  1.7525600385434107e+03  1.1897440240098597e+03  1.1785048403491412e+03  1.2251898673590460e+03  1.2529902564937195e+03  1.1810680494783201e+03  1.8276675897958112e+03  1.8356404905903196e+03  1.8093236321969764e+03  1.0409947805826043e+03  1.5355063928092004e+03  1.5218259962434840e+03  1.5608055136564708e+03  1.5568493620348802e+03  1.1107035873837362e+03  1.1233457237486730e+03  1.0496705531918030e+03  2.0264791221991070e+03  2.0168365496236906e+03  1.9215370763540686e+03  2.0171797483006176e+03  1.9808555367677618e+03  2.0216982186786440e+03  1.0648027430624859e+03  1.0898908788622568e+03  1.0649917591526475e+03  1.4022901129406000e+03  1.3773694375752075e+03  1.3708571112209718e+03  1.1072146700677872e+03  1.0812226181670826e+03  1.0330322198021897e+03  1.3926951336839836e+03  1.7448517317388073e+03  1.6549457904588050e+03  1.6394572281867634e+03  1.6832629487578349e+03  1.0446099495292901e+03  1.0272714623412637e+03  1.0444506353074567e+03  1.1506610620615954e+03  1.1495799784266671e+03  1.5634371582365643e+03  1.0329052919300730e+03  2.0798226461839467e+03  2.0198777002173251e+03  1.9564379874515585e+03  7.4774161210967202e+02  7.3072102871116010e+02  7.3557802334789176e+02  1.9269778593799174e+03  1.9013785133035458e+03  1.9067473036369443e+03  7.5405508970071139e+02  2.1116605002615192e+03  2.0341828285749277e+03  2.0588296369345280e+03  1.8426727045528294e+03  1.8256527215079363e+03  1.8135961290989796e+03  2.0978810310722811e+03  2.0326808995074439e+03  1.9605855927961004e+03  1.2988978086463790e+03  1.4656870308904352e+03  1.4367160749845896e+03  1.4113310314695239e+03  1.6003587252386828e+03  8.5835118522548817e+02  1.1878738790170637e+03  1.1927700622279278e+03  1.1998055786040916e+03  1.9320045498664635e+03  1.9991375568147685e+03  1.9256829311933004e+03  1.2674185771590096e+03  1.2810625546741230e+03  1.2716257827725715e+03  1.9548731134153677e+03  1.8968325448145497e+03  1.8860151208848481e+03  1.8384624754954143e+03  8.0917507551192091e+02  8.0837132179631806e+02  7.9004205727712861e+02  1.7461006158036014e+03  1.5705707234484430e+03  1.6102769376643089e+03  1.5734082031661299e+03  1.8377339127554033e+03  1.7942605179759532e+03  1.8083826872806026e+03  1.9345566730023684e+03  1.9542049811683162e+03  2.1307877005436835e+03  2.1204938969697923e+03  2.1039715752420880e+03  1.5802531785585129e+03  1.5938132333096505e+03  1.5967839312042145e+03  8.9325286262961231e+02  1.2433491127057512e+03  1.2339897761681248e+03  1.2353885230264157e+03  1.7424747445902401e+03  1.7862117508489935e+03  1.7854717510146272e+03  8.4172947075167428e+02  1.6418722646441554e+03  1.8787585876824733e+03  2.0219085957725702e+03  2.0407784477979517e+03  1.9557238279734668e+03  1.8133670934600341e+03  1.7728084979232615e+03  1.8273938085902400e+03  1.0647307802006399e+03  1.5981915514813829e+03  1.6222438457381704e+03  2.2403681557911127e+03  2.3289214356370503e+03  2.2551818933989712e+03  1.9431548264509956e+03  1.8787081889312619e+03  1.1981320623293088e+03  1.2239984437401622e+03  1.2238445235205370e+03  1.3043879368175512e+03  1.0387021931591764e+03  1.2168894597473441e+03  1.2032569350135282e+03  1.2004089690664341e+03  1.1937742758204881e+03  2.0554298382590691e+03  1.9586343635286421e+03  1.8636305391744561e+03  1.3187118407115213e+03  1.3039414134504420e+03  1.2773644160468466e+03  2.0659017412416852e+03  2.0472805007074037e+03  2.0501097714048792e+03  1.3793172972896098e+03  1.4108618446382129e+03  1.4234732301406266e+03  2.1006544597240963e+03  2.0985737392561027e+03  2.0259365970430106e+03  8.8098236696743231e+02  8.8715096644250934e+02  8.4609066490442763e+02  2.2830467475659348e+03  1.1408343021173264e+03  1.1257709400444128e+03  1.1465281425878811e+03  1.2794743098368554e+03  1.2620827846316893e+03  1.9767564708909019e+03  1.9467202181478578e+03  1.9595803636409798e+03  1.1120910577860882e+03  1.1411277834680466e+03  1.1239064292828139e+03  1.0327099414336101e+03  9.5755559250578222e+02  9.6803170178435164e+02  9.7623356514420288e+02  1.6782159137294520e+03  1.6707217769066733e+03  1.6908351927563276e+03  1.7985026991432044e+03  1.7170381708102916e+03  1.6450694209829678e+03  2.0081003515577293e+03  1.9994494379638506e+03  2.0076123440277838e+03  9.7322979498409109e+02  2.0122853392623074e+03  2.0168292257721964e+03  1.9111833430847380e+03  1.1539805281840377e+03  1.1526026602862541e+03  1.2587583451532939e+03  1.2512485703539114e+03  8.9068141709803149e+02  8.7993945933629186e+02  1.3685952189762529e+03  8.2659287109362015e+02  8.4747712561014737e+02  8.1112462262861516e+02  1.9741658722564225e+03  1.9717146294397864e+03  1.9399208431671921e+03  1.7855725856815411e+03  1.7569046325897693e+03  1.7661588303191033e+03  1.5461523593596028e+03  1.5338062016267438e+03  1.5546034953795036e+03  2.0748820038980257e+03  1.7664102511024898e+03  1.7770035202482641e+03  1.7440491073750759e+03  1.2164755408937729e+03  1.2114135776848468e+03  2.0924365031136795e+03  1.9938666641610325e+03  9.9076000339808456e+02  1.0140277397237448e+03  1.0178715282363434e+03  1.2100157177930923e+03  1.2133587192739360e+03  1.2167867136076325e+03  1.2089965466582155e+03  1.2114403079354147e+03  1.2064077789703956e+03  1.8982278363168089e+03  1.1257257630253398e+03  9.2923754723330558e+02  9.4392811177260876e+02  9.2966607282137318e+02  1.1338948190999647e+03  1.1304541411221794e+03  1.1204592823978471e+03  2.2379368485105692e+03  2.2874371091748808e+03  2.2658963143293295e+03  2.0348886561733925e+03  2.0222437713715183e+03  2.0055943564705206e+03  1.7391753433182623e+03  7.9772732808518663e+02  8.0813255804076471e+02  8.2201995049619529e+02  2.0335543826795736e+03  1.9739061419819459e+03  2.0436646369893931e+03  9.7668265496669483e+02  9.8352472303845855e+02  9.6917849393226379e+02  9.7251944205986558e+02  1.1731628008723922e+03  1.1761357099746172e+03  1.1629056003207647e+03  2.1049993114953227e+03  2.1324505618895537e+03  2.0585971890840451e+03  7.7612389456210315e+02  7.9026757202208512e+02  7.5495665467521519e+02  7.7538217174311660e+02  8.0809468092298425e+02  7.9327375689878352e+02  1.2428042750353554e+03  1.4282700231146212e+03  1.4317692190479343e+03  1.9044441181527288e+03  1.9818529246523985e+03  1.9118431759690639e+03  1.0046970306331457e+03  1.2155025049687767e+03  1.2116974986034650e+03  1.2110431599516310e+03  1.5745149773941719e+03  1.5717691377884610e+03  1.6356198508740247e+03  1.5309112066889627e+03  1.5564896455383227e+03  1.4550984502308395e+03  1.2101413288194151e+03  1.6630697745627749e+03  1.7778283756684261e+03  1.5555856815565089e+03  1.8848303201945898e+03  1.9463425759831218e+03  1.9055319582993416e+03  7.3377485305806783e+02  7.4201780639647598e+02  7.3753515946678510e+02  7.3261688000521838e+02  7.3635640655550833e+02  7.2559134279559942e+02  1.9651872069678539e+03  1.1861306939792494e+03  1.8982026776553359e+03  1.8846627170994370e+03  1.8289720496215300e+03  1.3030541556568671e+03  1.3000097676900011e+03  1.6083613820752582e+03  1.0494516970486461e+03  2.2355626532689680e+03  9.1799711369881823e+02  1.7006395927800381e+03  2.0162105692911259e+03  9.4786403803680969e+02  1.6277381161571318e+03  1.6489257360623351e+03  1.2586837824892482e+03  1.2442808868045045e+03  8.9937857182549010e+02  8.9266026007793823e+02  8.9829157517870794e+02  1.2361315207535831e+03  1.2393608849358648e+03  1.2415568306659156e+03  1.8567739686448824e+03  1.8871021124051897e+03  1.7712278868983942e+03  1.2389593838831486e+03  7.9080979682196141e+02  1.1800072076049807e+03  1.1708188717460273e+03  1.1567607602259638e+03  1.4928875856131508e+03  1.5199699550079106e+03  1.4928480077960594e+03  1.1429884747485080e+03  1.0957794894663539e+03  1.9880486331462228e+03  1.2627083558862325e+03  1.2548632631575815e+03  2.1790707100882687e+03  2.1768756597794168e+03  2.1598038337878315e+03  2.2074791161725630e+03  2.2197015251297807e+03  2.0424461329791147e+03  2.0280055079838367e+03  2.0783089381959589e+03  1.9739869565521919e+03  2.0125763223618985e+03  1.9759347938342369e+03  1.8833244328003277e+03  1.7311902458500608e+03  1.7416469283179422e+03  1.7317956955925247e+03  1.7361898503813686e+03  1.7924021391346650e+03  1.6959193774017929e+03  1.9615701926647446e+03  1.6662686633460701e+03  1.8452317592655700e+03  1.7632948020723406e+03  1.8219121440688068e+03  2.1907975350741035e+03  2.1437344994785849e+03  2.0857727530605098e+03  1.7600459003900851e+03  1.8366945384439787e+03  1.3025789158570001e+03  1.2879600405981732e+03  1.6761114925685176e+03  1.6741399966751042e+03  1.6347913256882323e+03  7.3292891841639118e+02  7.5269672084784440e+02  7.2534239725549560e+02  1.8387780145333834e+03  1.7729453414613092e+03  1.1891034531652715e+03  2.1548666314382067e+03  2.1201474169098451e+03  2.0869253707722164e+03  1.2776036532083747e+03  1.4294444382989432e+03  1.4265335540132598e+03  1.4547838599041281e+03  1.9997000856736315e+03  8.0674141698646213e+02  8.2167532453521710e+02  7.5124824010465704e+02  7.3413057797348779e+02  7.3979668579978829e+02  1.1627315910837169e+03  1.1954446674858725e+03  1.1962966242380198e+03  1.9509079369814990e+03  1.0181664294645798e+03  1.0234724444776214e+03  1.0019202452583914e+03  1.8912969968402251e+03  1.9072117986683968e+03  1.8341270967202497e+03  1.7794969983157812e+03  1.2850507994986110e+03  8.0186647698806576e+02  2.0052031459560330e+03  2.0851291495673172e+03  1.8447234420134234e+03  1.9609248564935262e+03  1.9929755925413174e+03  1.9788055748737556e+03  1.9284060695148107e+03  9.6167694677169379e+02  1.7211025067131429e+03  1.7402258889372770e+03  1.6979006424290519e+03  1.2197550502845170e+03  1.2198660658775389e+03  1.7046927501034659e+03  1.2013695400346969e+03  1.2033931792788649e+03  1.1748875642091632e+03  9.8667651846788158e+02  1.0708659237537063e+03  1.0745737163732670e+03  9.9902270816715600e+02  1.5100763974758470e+03  1.4969045723818476e+03  1.5016820397072972e+03  7.6093554323149692e+02  1.8924660254287553e+03  1.9034518849689200e+03  1.5637600634371802e+03  1.0754646776300924e+03  1.4446536332591297e+03  1.2881153695069486e+03  1.9232670374739821e+03  1.7663997814116949e+03  1.4465278671279618e+03  2.1581192772840927e+03  2.2758310426945095e+03  2.1322272094135383e+03  1.6862959527254095e+03  1.1555914379163514e+03  1.1550221657850441e+03  2.0412838356973764e+03  1.9966834679930068e+03  1.7325475155111126e+03  1.7199369835877271e+03  1.7079513970008315e+03  1.3025731910243037e+03  1.7176498095917655e+03  1.7500924491502790e+03  1.2520653496522903e+03  1.2717088101109139e+03  1.2680733958869266e+03  1.8370809926735774e+03  1.9005166212445606e+03  1.8582382424022071e+03  1.9627417514408587e+03  1.8755566029980212e+03  8.8448181355960253e+02  8.9492372578449215e+02  1.9543000763360601e+03  1.9384213628683970e+03  1.4487226650906102e+03  1.4757703551254313e+03  1.8798116195696296e+03  1.8499355252487007e+03  1.8308862322429782e+03  1.9024178776127853e+03  1.9361562126878409e+03  1.8829106332004746e+03  1.7430208048784061e+03  2.0819727120347193e+03  2.0898613870996337e+03  2.0293702339007048e+03  9.0027836855443388e+02  1.6946619098894598e+03  1.7011766202367985e+03  1.7848116214725555e+03  7.7118225759598567e+02  1.5608846208427929e+03  1.5522777896211639e+03  1.0297414141706172e+03  8.8668814239366498e+02  1.8107581798646704e+03  1.9220074769999062e+03  1.9025586817346250e+03  1.6848694932530361e+03  1.1508633915529790e+03  2.0785777865454702e+03  2.0560822297109539e+03  1.1035521392870655e+03  1.1127189557355325e+03  1.1018667086578128e+03  2.0895105649321399e+03  1.5079118898097663e+03  9.2361656593713110e+02  8.9231027011708409e+02  2.3382655586421370e+03  2.3718842251943952e+03  2.3074461666121788e+03  8.1581702740696483e+02  1.1094046404870389e+03  1.9481207909781215e+03  1.0327856880471909e+03  1.6421314775675605e+03  1.5496225093070004e+03  1.5184198117039919e+03  8.2532696409926848e+02  8.2323471095598370e+02  1.1567116652761163e+03  1.1654261967023201e+03  1.1562921369207129e+03  1.5681634338140077e+03  1.9069252182383318e+03  1.8212258946489865e+03  1.8878297693958025e+03  1.5239907500600555e+03  1.5184061893036933e+03  1.4994220905199829e+03  9.1394070629871464e+02  9.2828359047833123e+02  8.6741544048474418e+02  1.3348553096054031e+03  1.4638142260725599e+03  1.3526371910001053e+03  1.3015431740089437e+03  1.0300410149171598e+03  1.0463784444547816e+03  1.0235114152211594e+03  1.7831073206582157e+03  1.3009217911574265e+03  1.3158131693114449e+03  1.3039403980433187e+03  8.7971431214200527e+02  7.3864547937955035e+02  1.2126984897403313e+03  1.1966417227152376e+03  1.1951270809124146e+03  1.0155550333697395e+03  9.9375765921920072e+02  1.0202419767440126e+03  1.6431776144184707e+03  1.6274757413581683e+03  1.6147061960988283e+03  1.7368231398042815e+03  1.7436780082006851e+03  1.7110496316403232e+03  1.5526527912145098e+03  1.0052908188152993e+03  1.0349274175691921e+03  1.7343433598342178e+03  1.7627363241495054e+03  1.3874913767631283e+03  1.7273962446800790e+03  1.2368207806365112e+03  1.2280122537002333e+03  8.9688195984854315e+02  7.8077367378801569e+02  7.6615499012064652e+02  1.7762341485114844e+03  7.5875261962931779e+02  7.4862378562468768e+02  1.4591264709236291e+03  1.4624769263658482e+03  1.4550601785893941e+03  1.7217102472569456e+03  2.0449943480501220e+03  2.0907142449860980e+03  2.1225942106827511e+03  1.9682876122346654e+03  2.0170556879687883e+03  1.9371036432895630e+03  1.5399096757997165e+03  1.5344939844448022e+03  1.5448471478321553e+03  1.0383348716381045e+03  1.2367621789481518e+03  1.2739459974287008e+03  1.8481525231953572e+03  1.8387038566044464e+03  1.8230877341583912e+03  2.0239260276876423e+03  1.2890252223074494e+03  1.2651561506175328e+03  1.2681262476749487e+03  1.2656897476556262e+03  1.6399728074957472e+03  1.6967333828382718e+03  1.6584191604815553e+03  1.1690509189683871e+03  1.1817069896132239e+03  1.2116206087771100e+03  1.2051953786838305e+03  2.0419176785612231e+03  1.7950484493317629e+03  1.7910794262626437e+03  7.2820934171913632e+02  2.0560936232826452e+03  1.1773892065163784e+03  2.0108164657700522e+03  2.0360315231036768e+03  2.0585489019679067e+03  9.1093673546510638e+02  1.1279166381044454e+03  1.0546320367817698e+03  1.8640807324348143e+03  1.9213762639261902e+03  1.8922003348589401e+03  1.9929400952828339e+03  1.7501597781589332e+03  1.8070526793596425e+03  1.4647102628872221e+03  1.4553543372087431e+03  1.0714151082748429e+03  1.7153885227017761e+03  1.9296970975355048e+03  7.8762615094698583e+02  1.4899746701519957e+03  9.9240678891018115e+02  2.1288639626219142e+03  1.5706388914664221e+03  1.9237304453209426e+03  1.0964463910430929e+03  1.0958708951313615e+03  1.9302792270571144e+03  2.0070188358191151e+03  1.9017912790023988e+03  1.6619656817718369e+03  1.6092725482165933e+03  1.6520180263512016e+03  1.6054341385821429e+03  1.6175679155114369e+03  1.5993775290240453e+03  1.9457181646466058e+03  1.8547937066766588e+03  1.8834289211525763e+03  1.1091656073791630e+03  1.2095725540695869e+03  9.0331208832120092e+02  9.1422712547093852e+02  1.2403367862527739e+03  1.2383576133187048e+03  2.0220738485949244e+03  1.5879010556523813e+03  1.6077690838734313e+03  1.6080777583080537e+03  1.7315397800959079e+03  1.2313867098817823e+03  1.2128678040215445e+03  1.2254990207159606e+03  1.9593017738446438e+03  2.0161411282519366e+03  1.2209289826024565e+03  1.2321397606965434e+03  1.3214304587131962e+03  1.3471345634847128e+03  1.2911375030024906e+03  1.7382322374787191e+03  8.9221748055653961e+02  7.6246230027609272e+02  7.9855730835251768e+02  7.9415877047414483e+02  8.5765703760501276e+02  2.0916068213207691e+03  2.1980499015883711e+03  2.0855007575915220e+03  1.8257274197712159e+03  1.8941279929147911e+03  1.7718696065163620e+03  7.5682308838787367e+02  7.8214818668746273e+02  8.0591497213736682e+02  8.3873539005151781e+02  8.2785278913511070e+02  1.2058861908263934e+03  1.1395954240769790e+03  1.1252174172771386e