<?xml version="1.0"?>
<VTKFile type="UnstructuredGrid"  version="0.1"  >
<UnstructuredGrid>
<Piece  NumberOfPoints="2747" NumberOfCells="4937">
<Points>
<DataArray  type="Float64"  NumberOfComponents="3"  format="ascii">374735.7799638459 1516706.839840921 0  374739.391280542 1516456.6161465 0  374556.6948891509 1516571.511652884 0  374200.8642287084 1516160.854307781 0  374000.769721084 1516179.399079973 0  374114.2033677427 1516374.53148027 0  372042.9890798798 1520007.421112282 0  371825.0353347403 1519933.892552006 0  371854.3469462972 1520144.344829202 0  370817.7484567259 1520286.600450408 0  370741.9745007821 1520074.194543695 0  370986.4811829398 1520196.894196813 0  370988.202015178 1520011.134292385 0  377296.0174492767 1512169.521341375 0  377070.6437485384 1512177.633972039 0  377141.1942309348 1512002.280743318 0  375222.7 1518269.2 0  375211.1 1518382.75 0  375033.9902819632 1518307.289375873 0  367767.5007689701 1519912.81777711 0  367886.7660636401 1519746.112850809 0  367678.1661676544 1519672.115783512 0  372373.6682367751 1516475.946078839 0  372572.8918324865 1516359.203281422 0  372348.6080799515 1516303.053064298 0  376302.5629406502 1513016.917238621 0  376272.0161300649 1513228.442963104 0  376085.9762011967 1513093.842012991 0  368645.7 1518322.8 0  368863.8418436811 1518451.413717529 0  368727.8130588926 1518570.439505604 0  370509.186856545 1517534.806639181 0  370779.7946275132 1517490.158544781 0  370679.441511657 1517673.949921395 0  375621.958357177 1514716.175549351 0  375830.8974265337 1514782.666882564 0  375749.9218950004 1514924.967969941 0  366009.090157418 1521277.781787195 0  365900.6220418175 1521063.563934361 0  366143.6222189557 1521141.150517148 0  366106.6338923891 1520965.591226225 0  370292.5279978727 1520601.392165591 0  370226.0032985894 1520406.405228568 0  370056.3220271791 1520605.574166712 0  369993.8387169564 1520397.886204289 0  366164.7896977397 1520563.923183497 0  365917.9919909575 1520651.16319636 0  365943.0147605119 1520474.961133635 0  374084.7514746638 1517539.691493491 0  373903.9786315896 1517722.728676157 0  374150.2244717617 1517682.127619885 0  373906.518533338 1526925.537767712 0  374134.7800195852 1526916.895696503 0  374007.9243490083 1527103.627514492 0  371099.1127123136 1518052.158374029 0  370889.1032643507 1518157.178437387 0  371101.047988827 1518261.666303647 0  370356.1609056261 1515238.454442641 0  370256.314786081 1515002.698328678 0  370150.4798388656 1515141.615542152 0  375366.6980913329 1513868.154324197 0  375492.8992928717 1514045.481411183 0  375538.3306282149 1513767.869739861 0  375664.2429664929 1513911.166332509 0  368466.5 1518645.7 0  368565.7 1518490.5 0  368647.3908860907 1518743.85698541 0  373898.1323852157 1528427.130505799 0  373745.5237657604 1528231.50956668 0  373941.8621003359 1528217.151820582 0  370157.8879169 1517569.503157192 0  369939.8027889362 1517427.91792633 0  369990.2145620591 1517655.175668266 0  370446.908536813 1515065.405389877 0  375007.5 1517476 0  375066.7 1517628.8 0  374907.8389624909 1517574.39903147 0  367415.4216042362 1519984.034113622 0  367316.8317543299 1519788.228827517 0  367552.7807105401 1519840.621244942 0  367484.2471848474 1519639.089849048 0  370502.2826951375 1516079.206475656 0  370369.195803861 1515890.357311658 0  370269.7314238755 1516046.860118093 0  370677.0983417081 1516193.113211985 0  370738.1261253569 1515998.850970902 0  373761.0818908745 1515573.708629838 0  373619.978952905 1515384.064746571 0  373545.0283858347 1515586.888819938 0  379303.2854030539 1528545.924845373 0  379425.281072069 1528316.699314245 0  379479.8144607657 1528580.298135072 0  370921.1312272802 1519476.648029194 0  371099.858093138 1519615.222423325 0  370857.6342290214 1519624.493076205 0  373495.2683185124 1516418.521689531 0  373707.0106765009 1516335.382584808 0  373523.1157892273 1516262.418228871 0  369962.8 1517275.3 0  370156 1517216.5 0  370121.8705318819 1517378.401206055 0  368612.3482018905 1520472.030774031 0  368782.9143535367 1520552.131142535 0  368597.0004665522 1520676.202491025 0  368783.8054399641 1520754.774212712 0  366920.9369631655 1519976.081418447 0  366765.243674586 1519879.449151154 0  366931.9261026626 1519726.576153214 0  374534.4396944677 1516792.917255719 0  370748.0005395916 1519765.711062982 0  370613.5144470303 1519572.178717461 0  370498.1495184739 1519755.46292791 0  366124.8447744848 1520363.67828998 0  376718.522875023 1514105.539516179 0  376544.7149498558 1514280.247994735 0  376559.9911125051 1514062.6004773 0  371546.5180025869 1516083.661389065 0  371616.4977842487 1515877.31346193 0  371372.9439526909 1515865.681728827 0  373640.0302011937 1517795.22745503 0  373682.2703280724 1517598.514751269 0  366557.9869719932 1520987.095829924 0  366755.6205587587 1521093.169333388 0  366550.0629817304 1521191.403914059 0  374506.2794078752 1518645.050035941 0  374392.5646814218 1518832.211297654 0  374351.4691693218 1518613.190899606 0  373895.6476940611 1517512.112577214 0  377444.3 1513674.5 0  377541.5 1513767.7 0  377411.1171062742 1513858.020244304 0  374993.7692089967 1513042.351876731 0  375256.3940294007 1512990.362445806 0  375153.1296787279 1513213.262582565 0  369798.599249021 1520272.377917809 0  369779.4977817969 1520472.333105098 0  371200.0680778399 1519331.306587075 0  371318.5703686032 1519507.262114177 0  371401.2162556651 1519281.227960361 0  373473.7 1527820.8 0  373412.5 1527726 0  373579.852386096 1527685.116813977 0  376631.8539533167 1513874.008644104 0  376849.052092807 1513865.22762167 0  376936.2491109152 1514084.2515851 0  367714.7270035305 1521172.649636958 0  367917.9564601954 1521267.683966244 0  367886.341575756 1521049.329835391 0  371287.2232378765 1516836.855317761 0  371201.1699249336 1516986.332551795 0  371449.1701464228 1516979.274903817 0  371371.8221964581 1517455.140531653 0  371193.4367869473 1517598.776212744 0  371370.912428558 1517641.453709483 0  373681.6275165296 1528401.363478355 0  376610.3551761989 1513023.984803177 0  376838.378820357 1513013.797836095 0  376641.4581726966 1512866.005104395 0  372076.5 1527418 0  372137.7 1527336.8 0  372234.4787503914 1527468.226667841 0  370583.5870687083 1515881.112340559 0  368848.9764700645 1518677.606731725 0  369056.2744665567 1518584.629853332 0  371048.7762215674 1516926.860563923 0  371144.7739799853 1516735.847018079 0  375217.4683928452 1514113.801296377 0  375108.6265345397 1514361.409009145 0  375326.2127940517 1514308.829814524 0  376939.2886328542 1512000.194893428 0  376723.6749290209 1512078.719117814 0  376845.8750071187 1511852.087540796 0  375564.782253324 1515560.671522271 0  375366.9838108982 1515710.719821707 0  375543.3161179402 1515803.261924036 0  374034.0900191081 1516961.909481205 0  373837.39433556 1516866.935923191 0  374015.1059711852 1516746.809702287 0  369097.3285755742 1518353.376486619 0  369283.6585169891 1518529.192078992 0  379697.7 1528243.2 0  379767.7 1528236.8 0  379744.8139846617 1528378.982119502 0  370326.4569424403 1518429.655727919 0  370271.1907602182 1518211.623391653 0  370497.0432348734 1518295.777210008 0  369200.0552545572 1518776.444211426 0  367639.2 1519261.3 0  367691.1137440465 1519450.290443236 0  367453.2098243235 1519436.253698494 0  371516.2135150912 1519416.64244266 0  369772.2218601287 1518805.166916542 0  369981.1498975541 1518817.264783362 0  369801.8684268866 1518653.553699818 0  374129.2 1513241.3 0  374274.3 1513270.5 0  374228.9083288074 1513407.358455804 0  376835.7920641824 1512842.353348419 0  381944.3 1529343.5 0  381770.3 1529421.5 0  381807.0621809612 1529178.292548119 0  371175.5770011749 1517427.369607422 0  373032.8000259782 1519185.920496872 0  372863.1782685805 1519322.264286461 0  372827.6515761724 1519086.781079355 0  378219.9 1512442 0  378213.9 1512561 0  378033.3250072608 1512492.244118064 0  371279.7618813435 1520238.147743044 0  371450.8917566454 1520112.406579985 0  371211.8539145854 1520042.137372587 0  372235.018274397 1515854.164674743 0  372052.0198918319 1515672.19441887 0  372277.1644003957 1515646.388158975 0  372812.1197359322 1519507.706570946 0  372642.8314218058 1519366.773512872 0  381797.5959884672 1528955.137125702 0  381618.8668001423 1529050.275154082 0  372318.5236915281 1518795.185847601 0  372517.260559752 1518922.823880471 0  372314.3671256246 1518972.824599078 0  381654.7167832025 1529334.427310772 0  372075.7733888853 1517051.649581196 0  371921.7764985741 1516876.849304819 0  372117.2899444767 1516836.129458263 0  369161.1500563722 1517939.605074113 0  369251.985135228 1518177.814601979 0  369377.8890316332 1517953.01320347 0  369467.131150987 1518151.680412176 0  374804 1528043.5 0  374708 1528203.9 0  374642.6152075189 1528047.963317914 0  381574 1527489.2 0  381419.2 1527544 0  381413.5688333916 1527333.23096646 0  369004.177203368 1518935.681943097 0  368808.2851163486 1518861.041050636 0  369019.2284998901 1518759.342542493 0  371098.1045475393 1520350.943571662 0  371293.1818720821 1520441.903450076 0  374042.3684453133 1515817.72466619 0  374256.6582120747 1515775.40801422 0  374231.8321365098 1515972.083767588 0  370059.4588129887 1516116.86856821 0  369941.1381052432 1515969.193063826 0  369811.1597895455 1516115.098526454 0  373916.2395907824 1515981.735646461 0  373826.1929812924 1516176.788653926 0  373624.3244208031 1516502.982322432 0  376667.4476378575 1511872.688905921 0  371357.6363219303 1515394.001893902 0  371177.7323959109 1515403.826998347 0  371259.3348460203 1515197.327147163 0  380692.8 1529266.3 0  380538.8 1529178.3 0  380693.5808942512 1529052.017373541 0  373714.5903954255 1519016.51701191 0  373557.6849104519 1519183.563461256 0  373438.3362593044 1519064.233161554 0  371329.1157235735 1517126.201684735 0  374076.4545572564 1516007.879823125 0  366393.3193757921 1520505.098884523 0  366260.6002974563 1520741.217671655 0  375065.0164033848 1514194.513269269 0  366438.8761179933 1520711.623230052 0  372510.8 1514175.3 0  372675.7 151
[...]
<PointData  Scalars="f_36"> 
<DataArray  type="Float64"  Name="f_36"  format="ascii">2.4875278638585705e+01  1.1740542636298356e+01  9.1484389747124652e+01  4.1639007028332486e+02  4.3618522156374922e+02  4.1479591731742977e+02  4.3792434073910522e+02  4.2438695960515884e+02  4.5001875871643347e+02  5.2640140305845432e+02  5.4691607963869774e+02  4.7570965152653031e+02  4.6777152915215333e+02  1.0210905789945484e+02  1.4874479257104954e+02  1.4659086777318470e+02  2.6828825061939384e+01  3.8303224906800310e+01  4.8071860070265366e+01  3.6474043855469397e+01  5.5923565781300447e+01  5.8214165387490162e+01  4.6127956807264457e+02  5.0001242740689929e+02  4.2113735282618097e+02  2.7157534725353941e+02  3.0813017783116965e+02  2.9213431147226220e+02  2.2995639956953379e+01  2.5175016196922829e+01  3.5669111194348716e+01  7.0955807903650523e+01  4.3837565526700523e+01  1.2494562187760881e+02  1.8431243236925678e+02  8.9716194529474592e+01  7.8291684166018513e+01  5.1907856464533779e+01  8.9730443824940622e+01  5.7976650266819256e+01  7.5748349851818730e+01  5.8386984630347956e+02  5.5048440934995119e+02  5.5523279780408507e+02  4.7566906813649376e+02  9.0871359766331622e+01  9.4584561629468297e+01  6.0571752540995284e+01  8.6630892557159783e+01  1.4394062390340440e+02  4.5955869449215456e+01  1.1076025826890461e+02  1.8427739402362935e+01  9.4473332063833226e+01  1.3162978813396091e+02  3.9357047453711026e+01  2.6426218523456106e+02  1.1413041567399377e+02  9.5187451020807771e+01  6.0470536680856881e+01  2.0051858891849326e+02  1.8291437254463960e+02  2.2980374570092502e+02  2.2637309634472035e+02  1.3970312186231864e+01  4.2244133132217598e+01  4.5986824782664691e+01  1.6448926697628355e+02  1.2361411466008276e+02  1.3933282181637986e+02  9.7028601013454264e+01  6.5255128283647153e+01  1.3177358787286425e+02  1.3558907123516070e+02  5.7219413874658596e+00  1.1562773045355888e+01  3.3683931102511728e+01  4.2607811944801036e+01  4.2660746765860971e+01  4.4227240120222781e+01  4.3592235253378909e+01  5.2157176144868920e+01  7.3220264429916099e+01  7.5570327285543385e+01  6.3400245288005202e+01  5.0568876120599207e+01  4.8117140957631767e+02  4.4425202083544701e+02  4.5684951467308849e+02  7.4365879086739227e+01  3.8128741774609225e+01  7.0068176112802476e+01  4.7163289102618262e+02  4.8551358441673807e+02  4.5690894376016035e+02  5.0094534057750047e+02  4.6600515249754545e+02  5.0007758149070270e+02  1.5578171911028408e+01  1.5535071963120037e+01  4.0633380246758882e+01  2.3688728378298183e+02  3.2758996208660051e+02  3.2593351432049195e+02  3.9838083602982977e+02  2.5191477331274587e+01  1.9910960000779220e+01  2.9902255013384245e+01  2.7276576482177056e+01  4.8051517696104918e+02  4.1875537355124828e+02  4.8912985941790009e+02  5.0481331022486273e+01  7.1168540449952289e+01  8.8779811969489302e+01  7.8754657155795741e+01  7.6969222336779154e+01  1.1384903693334873e+02  9.8632507862318420e+01  3.7837672873480358e+02  3.9408847992338121e+02  5.3118133131236540e+01  4.1749052252754197e+01  2.2534940073572471e+01  5.9238896892739710e+01  4.6187957689681127e+01  4.4065443197763621e+01  2.6631699543263341e+02  2.1153332923489010e+01  2.3216075764110954e+01  3.5038411235346281e+01  6.3828662552191524e+01  9.4371232700185203e+01  7.3542608308115135e+01  2.0078329366193992e+02  4.1647591073500882e+02  5.2945362549518416e+02  5.0699723422787946e+02  5.3533327390881107e+02  1.5224394398132258e+01  9.6563701837456080e+00  1.3224699971335926e+02  8.0881594816650249e+01  6.0446096188987411e+01  5.6543004920148618e+01  8.5940272414178224e+01  1.1862141510283875e+02  1.3070962096525702e+02  1.3998752825716838e+02  8.8949082911728169e+01  1.1125242757859942e+02  1.7738260728369778e+02  1.1790388972079683e+02  3.1084053580254408e+02  1.3863526803971297e+02  1.7790344856692926e+02  8.8653814912403348e+01  1.9424528031736040e+02  1.0000000000000000e+01  5.8576573164103941e+01  1.2026050129933246e+02  6.7667716226015258e+01  2.6995003331170427e+01  2.0553806761516334e+01  8.8347257371309581e+01  1.6532687425148021e+02  1.9038853635138014e+02  2.8020367489190164e+02  1.8990465987105995e+02  1.2364490625856190e+02  1.3162641569978663e+02  9.2020163986833239e+01  6.4503056475922776e+01  8.4759210267862727e+01  2.3185471412573886e+01  3.3752137786158693e+02  3.8721435179808219e+02  3.8195482920982317e+02  2.7017123120226625e+01  2.6700373691252153e+01  9.6311958462575724e+00  1.3165638317533368e+01  1.0741806255754724e+01  3.3320836585812096e+01  1.0485247247732121e+02  9.3601442686883246e+01  2.9464104217351469e+01  6.0713506372592123e+00  4.8969203446030392e+01  4.1109942032622612e+01  5.0346488474294108e+02  3.8545931979925712e+01  3.0440525776957355e+01  2.4364486988008018e+01  3.8185787042807520e+00  1.4114639923784985e+01  2.5533238655850504e+01  1.3699796921605486e+02  1.7565498569950339e+01  4.7626075096089608e+01  4.9737006267937247e+01  1.2540750579335631e+01  2.8597653001850625e+02  3.1271843765114238e+02  5.1820456229998399e+02  2.8940204099040939e-01  2.0969934320085276e+01  2.7216261040414746e+01  4.2351003131208472e+02  4.1961852350991745e+02  4.3664434933802590e+02  1.7152290383835060e+02  9.2044676062504067e+01  7.5817159265482786e+01  1.6487418750853428e+02  4.5376617335671926e+02  3.1097984058906317e+01  6.7975953832296540e+01  6.3472903850252840e+02  6.0496964639436328e+02  5.8894763777650076e+02  6.7330791092422984e+01  5.3879207491492241e+02  3.9757371411682061e+02  4.9633042806523071e+02  1.0043853912636411e+02  2.4785505331517953e+01  9.3010585232861189e+01  1.5859403310712874e+01  3.3096564911980941e+01  1.3915813765080213e+01  2.2003364657893968e+01  1.5002179224064394e+01  6.3650588834031945e+00  1.0221423709987686e+01  3.3671152023957276e+01  4.2186050803551531e+01  2.3061137506537090e+01  4.4594370964612784e+02  4.2254834107094257e+02  4.9407818588399647e+02  4.7476782465848129e+02  4.3930128091934984e+02  9.8064042118517520e+01  1.0176261431146668e+02  1.0113301363039173e+02  4.8251514545720761e+02  4.6574845338779159e+02  4.6241718576432169e+02  8.9214809097343789e+01  1.7379577144071163e+02  1.9979870059515335e+02  1.8454598153405615e+02  1.3446175860042505e+01  1.7318171526379929e+00  3.1187635144326904e+01  5.7247581271339072e+01  4.9068485755072167e+01  3.4872027999885205e+01  6.1538788458794940e+01  4.5282097558274421e+02  8.9819796732137263e+01  8.7402905257080889e+01  2.2031881702891960e+02  9.4582057090796624e+01  2.6218829250058498e+01  2.5123208616353974e+01  4.2907148902889787e+01  6.1374697368183161e+02  6.3226778213623959e+02  6.6913369307964922e+02  1.4804879688205261e+02  7.2565999396733858e+01  2.4521381139383291e+02  6.9719899071338648e+02  6.6514882921692652e+02  7.2125220444277920e+02  3.8569580426309767e+02  4.9434402568016077e+02  2.6322994045384050e+01  9.7942816668077555e+01  4.2014274467886160e+01  5.6596824421920545e+01  4.2400602977202730e+01  1.4197512397268934e+01  1.9897031881468962e+01  1.1691577148086814e+02  1.6573317680140190e+02  5.4117895469053714e+01  6.9562766244459254e+01  1.3437261462920191e+02  1.1679920481422526e+02  1.2211094673635010e+02  5.7596966332682896e+01  3.7513902264702955e+02  5.5833542560164410e+01  9.2395561109976370e+01  1.5030920350685682e+02  5.6994795918880550e+02  6.2696113120934115e+02  6.0050596812384583e+02  6.3597779980742803e+02  2.1720103101423387e+01  2.3958009208547745e+02  3.3153586637525007e+02  1.9482002890360310e+01  5.5221594727191112e+00  2.2126050733463330e+01  1.3650591214269603e+01  1.0222261961213588e+01  1.1000724647300851e+01  1.5544653187733704e+02  1.6741965487163037e+02  1.3836809057749596e+02  1.1116513464867282e+01  9.3913354321834515e+00  2.3249696400142305e+01  4.6074653647006407e+01  3.0641510619779392e+01  4.2352771169496641e+01  3.7036323865985551e+01  3.3453010517638290e+01  1.4947717323439647e+02  1.1158884444442648e+02  2.0632290931793412e+02  3.2725972100139290e+02  2.5534035767701812e+02  2.7909233309478509e+02  6.9431405828784236e+01  1.5066595391908802e+01  1.3022235172159503e+01  3.0846181747019042e+01  3.0834266762293350e+01  8.7110943967241326e+01  4.5316048919203297e+02  4.2963219265225172e+02  5.0246993127274800e+02  3.8782624761267162e+00  4.7573450826850149e+02  4.9359361440103493e+02  4.9278903490452188e+02  7.1217717178667726e+01  5.6039774045489494e+01  4.3594741465434659e+01  2.7850580533721939e+01  1.9605922849147110e+01  6.9286449531683814e+01  9.3380310298305716e+01  7.9326533061970466e+01  1.5936898266494895e+01  1.1072441431290182e+01  3.9691909655379163e+01  1.7928657971048861e+02  3.3139500839208421e+02  3.3489962096804635e+02  4.8596009222351097e+02  6.3183434526015333e+02  1.3926781332666084e+02  1.5414741930265166e+02  1.8261400008283846e+02  1.1373752434216510e+02  1.6905548775793702e+02  1.3187800842517246e+01  1.4121538420059743e+01  4.7795101369120133e+01  2.1583802103377769e+02  2.4199744626907423e+02  2.3046902758176404e+02  2.6478737388297372e+02  3.9967776100955217e+02  1.4055466835597706e+01  5.0701694131085549e+02  5.6977247992951817e+01  4.6800258038096382e+02  5.2140377212699957e+02  5.1721705561479007e+02  1.2708425551408803e+02  2.5132436219068524e+02  1.4354821627331711e+02  5.6727462475179743e+02  4.3301488643627806e+02  3.0402339033161287e+01  6.5349178866588417e+01  4.3204320846076314e+01  5.1538809995506320e+01  6.1437210660287839e+01  2.1933204265158071e+01  1.8690306799571481e+01  7.9787985876389584e+01  1.9913912685144719e+01  2.8412545402004397e+01  4.7226663314209169e+01  4.9025048200878376e+02  5.2718282453837764e+02  4.1396910513912479e+02  1.0548393241370981e+02  1.6300131536859118e+02  1.0244425109302786e+02  2.8293936332644108e+02  4.0964580209522433e+02  2.9679381506920873e+02  1.4427117222004205e+02  5.1192994736887016e+01  1.1016828383537533e+02  1.9396366684304468e+02  2.3048834012376088e+02  2.7056552241549468e+02  6.7418651963179130e+01  8.4085209967139519e+01  7.2986237037100921e+01  4.3066800581528247e+02  4.7337468054112475e+02  5.3178438128096730e+02  1.2905378220103398e+02  1.1483695572722576e+02  2.0772390993129562e+02  2.1111684558056564e+02  2.0647417265664984e+02  1.1389585666941775e+02  1.7860101908927612e+02  1.9728828822538381e+02  3.9764744088346781e+01  4.0255282714047311e+01  6.7070043612008945e+01  6.1633106787617101e+02  6.0328234522727553e+02  4.3318651671493620e+02  2.3449484029004228e+01  4.1799281109948168e+01  7.3415134599619293e+01  4.1416853674907952e+02  4.9386629789498397e+02  4.0592216912344065e+02  4.8413440634978606e+01  4.6525844827620041e+01  4.5435865214511182e+01  3.0167887786938007e+02  1.6240790128870887e+02  3.9516706625553769e+02  2.7445032525553705e+02  4.5158602340913284e+01  5.1492072925511998e+01  4.3780349607809974e+01  4.8488784825387256e+01  2.2818129941466609e+02  2.1364154068274263e+02  6.3920154253807247e+01  4.1343767847356794e+01  4.3472809385226853e+01  9.7869156465470311e+01  2.0041116851134666e+02  1.6131730641925964e+02  1.9352483960659504e+02  8.9000504885253648e+01  3.5905460190838610e+01  5.1076279918050254e+01  3.5094460216641227e+02  3.7883807468258846e+02  1.1679115656328572e+02  1.0458587618854523e+01  4.5547699217217520e+01  2.4860345462443505e+01  1.5790873235588907e+02  1.4657307351940520e+02  6.8680411449612407e+01  1.1655692956101061e+02  7.6039471332361927e+01  9.3285008716983597e+01  5.1657537274842838e+01  1.3678965297586134e+02  8.9127735583339557e+01  7.4437451555021369e+01  7.7869664207382314e+00  8.7166425434808232e+00  2.3653320267018252e+01  7.0047117655966716e+01  1.9954502741993085e+02  2.0916116502818412e+02  2.2019433888131226e+02  1.3988229448314893e+01  5.9470875424285587e+01  3.3639276150726644e+01  1.4183058724154179e+02  4.1859583747046338e+02  5.9714988878186823e+01  4.3144958682146758e+01  7.8325370215773134e+01  2.0062098943595291e+02  4.2970903141359194e+01  8.5047039348127100e+01  5.1305438120611406e+01  6.2870279182113904e+02  6.1234108669982857e+02  6.1645118950630319e+02  5.8993270228325036e+02  8.1011087122458562e+01  3.4761784038868564e+02  1.2286898771918277e+02  6.4579449322015236e+01  7.8325211471351679e+01  1.2504866592623623e+02  1.5495929652388099e+02  1.2514817709286373e+02  4.3551127502270596e+01  1.3520499722806946e+02  9.5968864029364894e+01  7.5734548051368094e+01  1.3611003656729164e+02  1.6591359931053469e+02  1.7920271267500539e+02  3.1153714627577415e+02  1.1768562952136021e+01  1.3864378372530869e+01  1.5298526303189760e+01  4.4230571898344104e+00  6.5564368341341765e+02  6.3672858789651912e+02  6.4915550957556763e+02  4.5402252315609879e+01  2.6237682785175917e+02  3.8785412544112387e+02  1.0018885672798864e+02  1.1215803123329806e+02  1.2779714903164373e+02  8.2730444288593603e+01  6.1001528349254286e+01  9.2017009653558787e+01  9.3698486354339252e+01  4.2772984359931201e+01  2.3980125463994517e+02  2.6382353052602423e+00  1.1045192581373247e+00  5.2813966494452629e+01  1.1122883849283062e+02  4.2897044371090408e+02  4.2509748394316756e+02  9.9021537836950575e+00  4.0953906221095329e+00  2.5371432793433030e+01  3.6279939773633032e+01  1.2739999533050647e+02  1.5324738045190622e+02  3.3813788841142191e+01  5.5030476713863763e+01  6.3399429883625494e+01  3.9333198813610899e+01  4.3588298043163854e+02  3.6378312318954687e+02  4.6311245970604926e+02  6.1167268833063144e+02  9.4373160923125411e+01  1.0643393511404886e+01  1.9352136507367578e+02  3.7048679731884782e+01  2.1966316172515803e+02  1.4549322957426898e+02  8.4405610130627835e+01  2.7574946847051291e+02  2.6373315440274655e+02  8.3040539716770880e+01  1.2496023401130529e+01  1.3800502339686869e+01  1.5450166475426142e+01  4.0950172480625321e+02  1.8315310870898479e+01  4.8217459094405140e+00  4.8257017918891698e+00  6.0229972891708165e+01  4.8172523608522141e+01  4.1723134653838898e+01  6.4530729847644352e+01  3.3274264783255148e+02  2.2826662636070655e+01  8.9314906211616346e+01  8.8950113149717993e+01  3.4900519503914001e+02  2.9157858541784128e+02  1.9643556252961386e+02  1.8136383879512670e+02  7.1112792898979296e+02  3.4755984901569114e+01  4.6309987270108371e+02  5.3844295301695922e+02  4.7597942175389377e+01  2.2550342071647606e+01  5.3494726907902225e+02  4.8966150477181168e+02  4.2199048554560841e+02  2.0348556619220901e+01  3.2063444486950317e+01  6.5003571919163477e+01  1.5635511978193424e+01  1.8277159884152152e+01  6.4852529330493596e+01  1.2119002380357041e+02  1.4740850513889288e+02  2.1408306906885733e+02  5.8476646703697206e+01  2.6143878093773787e+02  6.6025399992202622e+01  1.5944673227152049e+02  4.1821828093893402e+02  2.1455140411929543e+02  1.7928242849593585e+02  4.7494173225124081e+02  5.3556686484911904e+02  5.6698499244456332e+02  5.0253202683433322e+01  4.9180701548399803e+01  6.0076952875200206e+01  1.9244060447661582e+02  6.1811942683984755e+00  4.0819230709574533e+01  2.8269447351206097e+01  5.8290974677879234e+01  2.2500390250335337e+02  4.6924656756569462e+01  5.6546441813800378e+01  5.3772765452311674e+01  5.8238733503137816e+01  5.6014555879028826e+01  7.3141599813235700e+01  4.7943365374659862e+02  5.2526565585442859e+02  5.0226962871729756e+02  6.8560293385684474e+01  1.0753298157352846e+02  9.0174794956642657e+01  1.5304341825762879e+02  3.2761888870795093e+02  2.6115761248620224e+01  2.1063087577441132e+02  4.3581107741841510e+02  4.4617535593105856e+02  3.9320701379728212e+02  1.1111540738257057e+02  2.0335473545445495e+02  1.9548635562593375e+02  1.6683564370912913e+02  1.1905555294893692e+02  2.0127242056639293e+01  1.1946851424683906e+01  1.8251878428603952e+01  3.1943376274956535e+01  4.0980843532306260e+01  4.3203015972927108e+02  1.6298645153217279e+02  8.3062873197998670e+01  1.7824076495359392e+02  2.2524741113061925e+01  6.4345887767742155e+01  3.3891094905227753e+01  5.0664431808605934e+02  4.4956048360492431e+01  1.6558758846600956e+01  1.4607624120288767e+02  1.1505299520219758e+02  2.9066183176767645e+01  3.2643374256532582e+01  9.4807381373470918e+01  2.2135650587004034e+02  1.6786909087205771e+02  2.3917954110416684e+02  2.0941251998428686e+02  5.5377456245537175e+01  6.2111920943624934e+00  3.0091805867358254e+01  2.8293957635060586e+01  1.6359372458225630e+02  5.0463958911942888e+02  1.8553752205070236e+02  2.1226522327464991e+01  6.1822671509924419e+02  6.1624549742908698e+02  1.9644602890928195e+02  4.4829115998543074e+01  5.7691870585465324e+02  5.8658906572389901e+02  3.8468253841513040e+01  1.1867856395490439e+02  1.2385237059314197e+02  1.6363409655216591e+02  3.4472928623383604e+02  6.9204642162144523e+01  1.2224184782538480e+02  3.4748340351314830e+01  3.3606599394081762e+01  6.7258920491112960e+01  1.0482471137449133e+02  8.4897113199441847e+01  8.2429302770198518e+01  6.5180246007879120e+01  9.2656795632193621e+01  6.6905931629488634e+01  1.0543895777032778e+02  7.9051807890989522e+01  1.4317117764467915e+02  9.6870401280536726e+01  1.0952108638677144e+02  1.0101849004349587e+02  5.5509907623872061e+02  1.4292439909404937e+01  2.6379412629199742e+01  1.5043978215875322e+01  3.9265050464937623e+01  5.3389516499213960e+02  5.3460109870118424e+02  5.8766628788279718e+02  8.5594973933108079e+01  9.9533637589102369e+01  1.8381025028210817e+02  1.0178883222113055e+02  3.8117758066047185e+02  6.5411902629358636e+01  1.7142070486480699e+02  1.4301413178733372e+02  1.0000000000000000e+01  2.8131074863462704e+01  8.7308400384057165e+01  7.0740045402933490e+01  6.2242916040270238e+01  6.7460513983019737e+01  5.2156580478829859e+01  4.9134279788950536e+01  3.7243191959556873e+02  5.9818968651400519e+02  1.0395428202906110e+01  2.1950851267527657e+01  2.8012325444853889e+01  2.1427615989405373e+02  2.6718380415899912e+02  1.3174504811608873e+02  1.1380636484582388e+01  9.6921196831858495e+01  9.1908821744111975e+01  9.9592155784779820e+01  1.0273803688128432e+01  2.8163361170029152e+01  4.4924526076658145e+02  4.2082630066992319e+00  7.8580991754347131e+00  4.4586351663318389e+01  6.9803768721092297e+01  6.3297343437957760e+00  1.4436807886382550e+02  1.2920218684137146e+02  1.0190999914155219e+02  7.8275415037346121e+01  5.0561831801007543e+01  4.0739126162610353e+02  6.4317762535595455e+02  2.4709079925592843e+02  2.4184359363307343e+02  2.7305595116796434e+02  6.0519427567561429e+01  4.4180982971479843e+01  3.6378506467316569e+01  3.1011478412555565e+01  1.2836109647151218e+02  3.2945413905910374e+02  2.8206916886701066e+02  8.9853228290703015e+01  1.0490214900467335e+02  8.4514769079935832e+01  5.6968437794227623e+02  5.9553714685532930e+02  5.4699302547746208e+02  1.0715798598650467e+02  1.5200535800194223e+02  1.7778427575640924e+02  5.9769180505764382e+02  1.2750854353915528e+02  1.3607661050806485e+02  9.5038779016540275e+01  7.1139599063208010e+01  2.8876430602109332e+02  3.2468971386881196e+02  3.2786822694426615e+02  3.1766027412909961e+02  2.4571312220296798e+02  4.7092894752082401e+01  1.0267432717257883e+01  1.1351431972367472e+02  1.0403049259671798e+02  1.3940498247283182e+02  2.6484000641057565e+02  2.1792655924260262e+02  2.0332037419692921e+02  1.3545489713677472e+02  4.6450497311749331e+02  4.2484425448863306e+02  4.2002871426070544e+02  3.7431789521523973e+02  9.1418728956902513e+01  5.3948282534894204e+01  6.5361692348437614e+01  1.0510890261296035e+01  1.4684134959944858e+01  6.9696248367085602e+01  1.4198895632239689e+02  8.8066705108593382e+01  2.7038712566226837e+02  2.1359059364216233e+02  2.6647328088677483e+02  1.3468010079871787e+01  2.5583892820307547e+01  4.2463966704176336e+01  1.0842406691142780e+02  1.2001513613468195e+02  1.3668790055779934e+02  4.1813971939823546e+02  1.5804133474723378e+02  7.4422706836931155e+01  2.1150789867020413e+02  1.3004904029514766e+01  4.9643192747475103e+02  5.6138571621579661e+02  5.8871764913176014e+02  6.4657705427700762e+01  1.0880900661003903e+02  1.4727613213946522e+00  5.1686951900932819e+01  9.3723786754857450e+00  1.2013974718370459e+01  3.3542137325879480e+01  8.7202939194060235e+01  8.6629896582231297e+01  1.0721876904760653e+02  8.5236815945144926e+01  9.5696822860888091e