<?xml version="1.0"?>
<VTKFile type="UnstructuredGrid"  version="0.1"  >
<UnstructuredGrid>
<Piece  NumberOfPoints="2714" NumberOfCells="4895">
<Points>
<DataArray  type="Float64"  NumberOfComponents="3"  format="ascii">367556.8685326607 1525596.688761796 0  367635.6454162283 1525823.217369616 0  367457.5391218169 1525718.608391134 0  367413.4052053969 1523738.46178056 0  367348.0694407795 1523939.087411043 0  367236.2087175669 1523782.883605691 0  369878.4326073452 1521169.023917394 0  370113.3639966646 1521128.790242808 0  370012.0444076875 1521346.335756192 0  370519.5707614782 1523448.365202598 0  370615.1303587087 1523255.382772654 0  370750.7910462556 1523415.114662456 0  376423.9375298842 1523682.695293898 0  376634.6707991196 1523596.969588988 0  376594.5045764699 1523792.648507408 0  375696.8 1519949.7 0  375834 1519872.5 0  375847.414820798 1520056.856909399 0  369238.2942761761 1526785.678212776 0  369366.4428086628 1526584.342894994 0  369398.3551030774 1526804.922935675 0  371969.3009210434 1522789.701665025 0  371738.6487545061 1522852.281830523 0  371900.8796158547 1522624.629445033 0  371425.5070403157 1522534.288007843 0  371473.2561622398 1522278.945252488 0  371611.3425196608 1522503.699859471 0  368797.0196716897 1521640.180446297 0  368625.5435072479 1521712.533879387 0  368576.769205305 1521565.933293161 0  370016.064299548 1526553.604662983 0  370261.9532867378 1526637.295360656 0  370237.5295595033 1526448.350200679 0  367246.9955641265 1524632.371428276 0  367436.1988852656 1524509.108942171 0  367273.940273155 1524429.052909301 0  371096.0549194419 1521918.344809461 0  371289.2571093031 1522039.054976813 0  371025.8745519355 1522124.766072093 0  371233.5942660079 1522256.037538296 0  371059.1648050447 1522732.560655446 0  370834.5846186446 1522735.82668061 0  370899.019758213 1522923.972750695 0  367061.8717006717 1523650.166849145 0  366894.3759170139 1523606.996158247 0  367090.2935738105 1523453.547969364 0  372269.2 1520364.7 0  372228.75 1520459.1 0  372127.2909965342 1520328.917232214 0  367961.7936162409 1524960.171481506 0  368174.9005272147 1524815.10852606 0  368183.5629486926 1524982.516556626 0  368369.0657051977 1525478.520724533 0  368556.9629551292 1525440.106124606 0  368446.6910427983 1525253.38442565 0  372427.7 1523939.5 0  372282.8 1523826.7 0  372457.7275449953 1523759.556508607 0  370814 1527648.1 0  370991.2 1527697.3 0  370837.8088132123 1527876.082565953 0  373684.0854429847 1522849.469749138 0  373706.5638464922 1522604.415332893 0  373548.9525334216 1522629.225194541 0  372569.3 1524305.2 0  372565.7 1524433.6 0  372723.5546467835 1524363.776235932 0  370046.303051076 1524572.166127309 0  369986.8341728356 1524350.109494177 0  369865.7143945241 1524573.383826711 0  373473.237289456 1521956.215963908 0  373414.1482971172 1521731.458659235 0  373647.2871746094 1521835.551153288 0  366869.882275239 1523444.9244648 0  370567.3180086876 1521108.256877615 0  370512.0605562314 1521328.717030598 0  370345.3945561261 1521128.790729532 0  370296.9218526106 1521330.895925475 0  374469.762565296 1521832.197612306 0  374309.7191742888 1522001.975480357 0  374473.2549986049 1522044.980067744 0  368708.6507849616 1521446.216046614 0  367526.564136176 1526042.387237334 0  367743.2117360363 1526013.942596992 0  376828.2493378383 1523370.749094268 0  376585.1288611156 1523331.024910233 0  376646.8502305686 1523187.150110551 0  371703.3975049325 1522350.794086597 0  367432.2 1527590 0  367425.15 1527712 0  367615.1005573744 1527661.772952298 0  369161.7011034793 1527853.187812885 0  369394.9441679117 1527877.961855744 0  369243.6215598701 1528037.264028243 0  377093.7 1520886.8 0  377120 1521008.8 0  376935.9747309929 1520969.199876658 0  376861.8566792359 1523223.177464137 0  368018.4717720668 1524749.044633803 0  371288.6172545406 1523212.654475274 0  371068.7580750075 1523227.802975934 0  371273.1419957184 1523035.568803921 0  371097.3355986325 1523009.283272407 0  371761.9 1526318 0  371759.9 1526419 0  371655.7899002746 1526300.270856368 0  370162.3 1527352.5 0  370328.3 1527456.5 0  370165.564576899 1527548.577246796 0  369178.7108667808 1526588.173205793 0  374089.4090867137 1521914.086110309 0  374175.6163590995 1522127.077440626 0  377935.9997784462 1522900.875251755 0  377962.4068828147 1523156.998206591 0  377759.9717448218 1522971.22347595 0  370843.3 1527281.2 0  370657.3 1527205.2 0  370811.9436073603 1527092.335381284 0  375361.5 1524752 0  375366.1 1524875.4 0  375171.2361313961 1524806.656624622 0  375712.8594066419 1522861.535253075 0  375519.403188414 1522833.970393947 0  375699.9247683773 1522626.74835428 0  368906.65724214 1524475.116049106 0  368963.6164795326 1524693.580246378 0  369074.7359113276 1524509.735990348 0  369183.1744145287 1524642.740013655 0  372614.1 1525296 0  372601.1 1525178 0  372791.4419586263 1525216.746224923 0  371722.9503528985 1522639.161274215 0  370946.8 1528472.7 0  370846.25 1528446.1 0  370937.5159073812 1528305.918415913 0  377326.8993589762 1526221.680008486 0  377248.8763072319 1526023.920351477 0  377443.8134418376 1526001.864615805 0  367968.855674012 1523051.067045691 0  367826.8532842874 1522882.983741697 0  368104.0047892614 1522913.823706597 0  367999.7585175493 1522744.915613957 0  372029.8021557635 1521554.891111263 0  372270.3048615661 1521638.766901271 0  372071.8877607996 1521752.633842893 0  369241.5521703925 1526362.631672005 0  374764 1524243.2 0  374622 1524185.5 0  374757.7316893615 1524055.044974951 0  374970.9319824258 1522214.950818359 0  375055.9965721103 1522414.262728182 0  375221.0642103962 1522288.82557579 0  375610.8411388294 1522379.050586003 0  375471.9798678126 1522505.788182151 0  367725.0306511762 1525659.979791859 0  369461.8514336404 1522686.578652653 0  369325.7931357214 1522574.43371931 0  369274.9674226277 1522784.563563443 0  370684.9028099918 1522876.372348789 0  370662.5725050617 1523045.013342659 0  371997.3292498062 1522175.411918824 0  372206.6653290422 1522097.468733905 0  372094.6632884323 1521959.797035913 0  368122.6760045114 1527519.658585825 0  367981.7050844238 1527361.622664753 0  367917.370466215 1527570.723899233 0  370705.8381560268 1523587.922583074 0  370318.2382281849 1523330.220653109 0  370450.7985408041 1523238.822767595 0  370745.7 1528419.5 0  370651.1 1528378.9 0  370787.08227775 1528331.896287755 0  377061.0005099441 1526192.699856112 0  377199.1343139021 1526405.82933355 0  367461.7 1528873.2 0  367419.7 1528782.8 0  367585.6561481796 1528808.421777048 0  377534.5258753212 1526117.28808253 0  368545.8991125686 1522402.775869067 0  368785.1428882789 1522406.609370836 0  368643.8716518922 1522271.329259185 0  375510 1520064.8 0  375586.8 1520021.7 0  375610.7970634174 1520170.273597197 0  377311.7608279101 1523591.38123993 0  377113.7828808944 1523713.34097865 0  377335.1881855017 1523771.416923207 0  375529.7225195215 1522659.017341137 0  370298.7845614782 1525606.884649076 0  370224.1837995814 1525429.36315148 0  370446.6563101923 1525421.462941243 0  368675.9520356602 1523478.487721528 0  368842.3148684524 1523674.911921741 0  368858.8725000288 1523397.4524167 0  375833.3897323037 1520551.073932602 0  375944.274923175 1520375.90411298 0  375690.6571795773 1520378.545309934 0  375802.7779353143 1520225.849182455 0  368154.8171688321 1523128.685810422 0  367975.3674447269 1523249.885139204 0  370240.2418508972 1522344.042073118 0  370423.9012479212 1522442.460369939 0  370381.1844958077 1522222.965719752 0  371350.4849300765 1521075.278432075 0  371192.0198693853 1520893.999867215 0  371210.7019349987 1521163.860507261 0  369447.9906264204 1525690.687780014 0  369675.5882272104 1525648.776731416 0  369566.6665210843 1525493.075584058 0  368696.9389951035 1522546.218218079 0  368572.2351483826 1526356.934630323 0  368624.5841956411 1526543.507110712 0  368810.1710608471 1526445.17267188 0  377491.4568707328 1523873.03862925 0  377666.6170136975 1524002.840849946 0  377633.9940284904 1523779.49473571 0  373927.429746418 1521354.126902407 0  373704.1680298123 1521337.404157995 0  373850.2797387158 1521174.176385279 0  377469.9916321592 1524212.035905191 0  377242.0438491494 1524219.772110329 0  377348.2429128066 1524071.278671011 0  369813.3183077947 1526592.328614761 0  369661.9484688566 1526748.092386516 0  369591.105033108 1526523.989529836 0  374268.0011419425 1521789.929146788 0  372855.5 1520827.7 0  372942.7 1520914.8 0  372767.1771698632 1521003.324289853 0  375547.5 1526370.3 0  375427.5 1526492.3 0  375329.023740678 1526283.925521063 0  374313.1109235433 1520427.729011548 0  374461.7875108205 1520366.473690172 0  374535.7431255503 1520569.001631873 0  368805.1234682718 1526259.017254621 0  375156.9018474495 1522072.375218998 0  377221.7 1527521.5 0  377291.2209686284 1527314.391267806 0  377459.182654544 1527477.803011921 0  376336.6533036984 1524125.59526692 0  376325.5265507974 1523887.767915289 0  376471.0894166245 1523922.963143505 0  375056.558473827 1520261.570991643 0  375249.2619754244 1520165.167494929 0  375282.751604315 1520367.402282884 0  376842.7868853742 1522876.061281961 0  376795.5864262318 1523080.607846792 0  376637.881666229 1522975.321066021 0  367561.8311449921 1523885.594947508 0  369807.4693216787 1520948.912264746 0  369676.1151069817 1521120.160372057 0  379233.2 1522611.3 0  379098.2 1522619.3 0  379161.4911016949 1522792.443926233 0  375802.9654217549 1520797.794230929 0  375984.088910524 1520681.822448112 0  368981.7981079365 1526343.681355379 0  369010.5322864333 1526143.045455827 0  368829.7335080333 1526067.551551798 0  368686.1150930594 1523885.127763727 0  368892.2795829005 1523903.31058096 0  374376.5623969506 1520695.308086834 0  370057.8404792854 1525572.144082733 0  372950.9616901336 1523526.476581232 0  373036.6207369418 1523730.7608121 0  372799.5488840759 1523660.921765043 0  376438.3 1519928.5 0  376528.3 1519975.5 0  376390.2209601246 1520017.358032857 0  369338.5327876152 1527710.130594918 0  378193.3307790572
[...]
<PointData  Scalars="f_36"> 
<DataArray  type="Float64"  Name="f_36"  format="ascii">3.0705008458489726e+02  2.5464180110969610e+02  4.6413500577128968e+02  2.5930467909478045e+02  2.6462658025736624e+02  2.0364885147956946e+02  6.9815212305356272e+02  6.5881679961396571e+02  7.0287969615951340e+02  3.8267110886675965e+02  5.0821332655339114e+02  4.9496911414886785e+02  5.2938401701778332e+02  5.5175436539986947e+02  5.2138509110975656e+02  1.7208698058811038e+01  5.3523457046505944e+00  3.0265457967552390e+01  2.0262599026633762e+01  1.9620476731610331e+01  1.9203215908530883e+01  5.4968874785927449e+02  5.7537057716070365e+02  5.6081193537096431e+02  6.0313980308041448e+02  5.9834439498582594e+02  5.8861304023034029e+02  5.7744390748242552e+02  5.1678553777640820e+02  4.4988327657035921e+02  4.3881518322954740e+01  4.3380692933029607e+01  4.7406549988346413e+01  4.1199644545842744e+02  2.8771871455920109e+02  3.0521865741719421e+02  6.1311057049169005e+02  6.1124197318192637e+02  6.1902319780506480e+02  6.0952124060363167e+02  6.6816791494023937e+02  6.8164090888028875e+02  6.7583139407792407e+02  1.6142023477346390e+02  1.3814316894684791e+02  1.6029338483937764e+02  1.1820656145556616e+02  3.4573471750867668e+01  3.7306669523665153e+02  1.0174112560976910e+01  4.5243748021914669e+01  3.4956089266784907e+01  2.1585349856739839e+01  3.9014484556393334e+01  5.7720294981704029e+01  3.2384662046758464e+01  1.8386176753346615e+02  3.9271710223163927e+02  1.0000000000000000e+01  1.0000000000000000e+01  1.2197837850862663e+03  4.6563480940198804e+02  4.9025515769096324e+02  4.8032120452162917e+02  2.8088806511400172e+01  3.8086297006524191e+01  1.3052588547577349e+02  1.2008267630739431e+02  1.3531643870953206e+02  4.4825374556630031e+01  4.7960824948892542e+02  4.2785394415980574e+02  4.5384345944143399e+02  1.4417601046816651e+02  5.5722856187140599e+02  5.9988737666892757e+02  6.1153441965417028e+02  6.4991587272890251e+02  2.0428551112919030e+02  3.9541178781468693e+02  3.8369528011989519e+02  4.8967340868194333e+02  5.7793757897080582e+02  2.0290010706690092e+02  5.7177389267276772e+02  5.5559240875548448e+02  5.4527351766378104e+02  5.8962828837390043e+02  9.0430190814381106e+01  2.0581263033896565e+02  3.2174241506135172e+02  1.2969316224420970e+02  1.4445177403109696e+02  1.6430716177798768e+01  8.3228082320534380e+00  2.2298059511973406e+01  2.7455934452960204e+01  5.5963916863254553e+02  1.8016931446302319e+01  6.3544280848557480e+02  6.5059594627323088e+02  6.6244160848079707e+02  6.7573463459072798e+02  1.8490641826169764e+01  2.6157864798317991e+00  1.9518564441677995e+01  1.0000000000000000e+01  1.0000000000000000e+01  6.3322166925844192e+02  2.2868692641866872e+01  4.0942278492711387e+02  4.3037122317636192e+02  4.6083757499955055e+02  5.3813449340134935e+02  5.1596494398072321e+02  8.0448448307964728e+00  1.3345782825307158e+01  3.7299436180434448e+01  9.1091531357094500e+00  5.4158017916872332e+00  1.4063071302639005e+02  4.8743167950622507e+02  4.9080487017978572e+02  4.7983200430782495e+02  7.2876407539976938e+01  8.7804436282546746e+01  9.9351969871941535e+01  1.0024719061468299e+02  4.9158776686491372e+01  1.3434164741534605e+01  2.0410122136811731e+02  5.7749775479623258e+02  1.0000000000000000e+01  1.0000000000000000e+01  3.5038424900827984e+01  1.2122400035545155e+02  1.0472536716535967e+02  7.2202034048713031e+01  2.8952245659124418e+02  2.5342128338409736e+02  2.9728620616943329e+02  2.6824255208401610e+02  5.7202799816325762e+02  5.4570701442966856e+02  6.1401766488043870e+02  2.4438421505214848e+01  1.1304094789547417e+01  7.0168036153532540e+01  2.4646267746778969e+02  3.4522076509268817e+02  4.0876133738547247e+02  3.7476540187103762e+02  4.5044420197398216e+02  4.6868354768685293e+02  2.4546746431555626e+01  5.5105646311172859e+02  5.1696562090805526e+02  5.0572211027718794e+02  6.5681009529161361e+02  6.1046287706374596e+02  5.9846236815338136e+02  6.0258425349089919e+02  6.1826061845436948e+02  2.3379389971737217e+02  3.3942075000408681e+02  3.1626109214758310e+02  3.6677815137905225e+02  4.3227418053778473e+02  4.8148611508626669e+02  1.0000000000000000e+01  1.0000000000000000e+01  7.8676372718116241e+01  1.3957130228510476e+02  1.4752147593202625e+02  5.7627593262416816e+00  2.9680385348088205e+01  2.8101359189661700e+01  8.5055751451716446e+01  3.2908784754815434e+02  4.1350287641755079e+02  3.6231078159268048e+02  1.1352955100400283e+01  1.7790683273325101e+01  2.3303562430722334e+01  5.9629282539327642e+02  5.6811691863498402e+02  5.7867327112022201e+02  4.8231485495670319e+02  3.2846366933127442e+01  7.5592155447473630e+01  3.9314029915775571e+01  5.5501334635683997e+02  6.3508981348841894e+02  5.5734290307195749e+02  4.5142506530456572e+01  7.7084577624276733e+01  2.5090418886807395e+01  5.5630934497039192e+01  3.4973172912224499e+02  3.3909242846110976e+02  6.8297097322294803e+02  6.8929655829253340e+02  6.8599353197317396e+02  4.7483580014500086e+02  4.4719365479424181e+02  4.9143907566627422e+02  7.4845375983543178e+01  7.3630992287395998e+01  7.8370564546883841e+01  3.7797426838379562e+02  9.6638883229011526e+01  6.6587931089269304e+01  4.7481044878123058e+01  5.6723720443527134e+02  5.3119484488789249e+02  5.8952314398586498e+02  4.9955094166403399e+01  5.4130025553424375e+01  6.4464834043996674e+01  4.4775783200886491e+02  4.3976838830169828e+02  5.0520291988645823e+02  4.7457753731652112e+01  2.7921032413844781e+01  2.3305095359745444e+01  2.6579129006340435e+02  6.6021957766417572e+00  6.6946195231238068e+00  1.9151425683885641e+01  2.7166930875179909e+00  2.9192166237011676e+00  5.7048587893431986e+01  4.0932740313969227e+01  5.7715810512219704e+01  6.3799933576805543e+01  7.1571381493684996e+01  2.0740104724204696e+02  3.5082324307860802e+01  4.6217424539416648e+01  2.9646451837286950e+01  3.9873167500583617e+02  4.8717792226801191e+02  4.8837230468241910e+02  2.9160303645218992e+01  3.1551927624158527e+01  3.3438115010335892e+01  5.0303849789052123e+02  5.4377482632456440e+02  5.2617333068100766e+02  3.6315411495904868e+02  6.6515201848041556e+02  7.2125658261506726e+02  3.5506647999324514e+01  2.5471314896501451e+02  4.2097193386093932e+02  3.1878170313417790e+01  6.0364250833428187e+01  3.5871892924771537e+01  5.4577418942244435e+01  3.3517341534771468e+01  5.9268570836961464e+02  5.6476044427936097e+02  1.0651618768519803e+01  5.8176569206922892e+01  4.2209473398320131e+02  3.1361526591756285e+02  3.9253166001651954e+02  1.5374865975814480e+01  9.1074861447968445e+00  1.6541607309506631e+01  1.8350742480044971e+02  5.0556686157951083e+02  4.4925993080109203e+02  4.9948308489666368e+02  1.8288085577951759e+02  1.6826692161713751e+02  2.8082637856970865e+02  2.8607495372462357e+00  1.6321398898086183e+01  1.2737361860823812e+01  2.3803438270685721e+01  2.5086781162156289e+01  2.9910149254980592e+01  1.0995133044437699e+01  1.0126386961051901e+01  1.1252109259162529e+01  5.5640638291551784e+02  2.9300774155030081e+02  1.9447582517902782e+02  4.3359610297359586e+02  4.4791909495994111e+02  4.2632933906566564e+02  3.5688521069458034e+02  2.1921621389856372e+02  4.3235334132175001e+02  5.2321787736438216e+02  5.3505826980682730e+02  5.0802721046165760e+02  3.5391003513161371e+02  5.1243060535078791e+02  5.1608206709032015e+02  5.0542179560100811e+02  5.1172114399327387e+02  2.0911674560860527e+02  2.2256620863126912e+02  5.2528140325571371e+02  5.4832615174006060e+02  5.1879127752581007e+02  1.8880330029163284e+02  1.3691272272382136e+02  1.3591645921799002e+02  4.1807844172766198e+02  4.7584066462352536e+02  4.8011931994148961e+02  2.3474712756444692e+01  4.7218406528392501e+02  4.8348827778986742e+02  1.7878398003730271e+02  6.4214902813098149e+01  5.2804386715599229e+01  3.6822572207090531e+01  4.4045907697765961e+02  2.7916209009268936e+01  1.7352099787558352e+01  1.1353477547906425e+02  4.7058588305549125e+02  4.9559718323294118e+02  5.4375934174437009e+02  6.2648258728771498e+02  8.5320154523643211e+01  8.2484035355548883e+01  1.2206765950780273e+02  1.1610341088122891e+02  1.2269292553407121e+02  1.4588745416687535e+01  9.7218293925395969e+01  2.9964704930235411e+02  4.9535133895718991e+02  4.4012843721767166e+02  6.8020901559358731e+02  5.8534557792662338e+02  6.0571112382158617e+02  5.3173308794752177e+02  4.4802211389473433e+02  3.2064635787403013e+01  5.0688995562863374e+02  4.8620715548464432e+02  4.0001285987860956e+02  1.1082176087179148e+01  1.0122092921802938e+01  1.2590834822572182e+01  5.2226758860828522e+02  5.0906905026341246e+02  5.0125215197572015e+02  8.5366580180732985e+00  6.1127511917905517e+00  7.4044559855753818e+01  4.9722913168272072e+02  4.3941613447021336e+02  4.2548448775110967e+02  3.9300066537323382e+01  2.3325069936599501e+01  2.2504403140390338e+01  1.9320103459129953e+01  5.2963055277224339e+02  4.3124277995900428e+01  1.0622723430307343e+02  2.8579540446839136e+01  4.7628242528659871e+02  4.4514551039202848e+02  6.5272990848875764e+01  5.1307713913458571e+01  4.1477230830937273e+01  5.3783333409279436e+01  1.0936833402999363e+02  3.5626510733882515e+02  5.9463022641028092e+00  5.7172042526253577e+00  3.4617874156747519e+01  2.2532578513798643e+02  2.2590306543808489e+02  1.5450102796414686e+02  1.8081540511776856e+02  5.1824691821302565e+02  5.0061986004918020e+02  2.6550674499718986e+02  3.3346812037524097e+02  1.0000000000000000e+01  1.0000000000000000e+01  4.4800191496810768e+01  2.6669309756500263e+02  2.5694215052897823e+02  6.4120351268472604e+01  5.4265329834116540e+02  5.2161824486318221e+02  5.3792625604146781e+02  5.7197834453463099e+02  5.8858484477427953e+02  5.7487012755794910e+02  4.9624123140540758e+02  5.2634469479508232e+02  1.1125889374612582e+01  3.8227189217287446e+02  4.8942834377241525e+01  5.0118660657515466e+02  6.1383006999051281e+02  6.1215697368494205e+02  6.2211869067603322e+02  6.9088275654542758e+02  6.6970201806047214e+02  5.2086209253995560e+02  4.3234397898599724e+02  4.6316851823717218e+02  4.5523259762671074e+02  5.3526419215622263e+02  2.4757789528389708e+02  1.0000000000000000e+01  1.0000000000000000e+01  1.4753346772952568e+03  1.3442116494918180e+01  1.5069930901525872e+01  3.5880445507681515e+01  5.6213341683171529e+02  5.0632105088800046e+02  5.4349476212230616e+02  5.5300049587639569e+02  4.1941855919346398e+02  4.8165588682305145e+02  4.1085116897984943e+02  4.7137166608699170e+02  4.7867282687163112e+02  1.0069602720567458e+02  3.9455325372026756e+01  2.4926425894997561e+02  3.0382240582374732e+02  2.3515124712936503e+02  4.1442602405108727e+02  2.6205470789297266e+02  2.0293743198268353e+02  3.4978267441974464e+02  1.1008745949441793e+02  5.2634720771604556e+01  1.5366357876110069e+02  4.9427424876164571e+02  1.2572490195689272e+02  2.7829188763450688e+01  1.9056763088749861e+02  1.6526136964570512e+02  1.8044151703000401e+02  3.8104378030298896e+01  1.3676466046636584e+01  2.1070905844296128e+01  5.4937595846194552e+02  5.5086085793882432e+02  7.1358662969694748e+01  5.0736392324328115e+01  3.3257835483392364e+02  4.9234867744217917e+02  5.1627111897482200e+02  4.5605763135448024e+02  4.8621504316740351e+02  3.5563585585796164e+02  4.5084776107731568e+02  3.8705595045594760e+02  2.8555575681823470e+01  3.5641712916109107e+01  3.3760121456489730e+02  8.5659914701928017e+01  1.8184772629290708e+02  1.3867522736370356e+02  1.8901308379093436e+02  6.1391982115675967e+02  5.7786569662579222e+02  6.9241587534030134e+02  3.1322084332981635e+01  4.8809332216392427e+01  3.7133000726577720e+01  3.3185750210068171e+01  4.3510232578419493e+02  4.5994905064157820e+02  4.5124581695443868e+02  2.2067686949211057e+02  3.4488020162459674e+02  5.1313696106227064e+02  1.9835253653420327e+02  1.7199688014856392e+02  4.8681083978844129e+02  5.1363752592110347e+02  5.1438725713949555e+02  4.6142486008935713e+01  1.0000000000000000e+01  1.0000000000000000e+01  3.3904717339459057e+02  1.3461642452974556e+02  5.1588524904125734e+02  5.3706379097664035e+02  3.4008277137811824e+01  8.4902131510659402e+01  5.3374305651734358e+02  5.7938425332479471e+02  5.6902832175757442e+02  5.8539701147180082e+01  1.8613979501625531e+02  1.1797062604981963e+02  1.1805856833144387e+02  7.3706095767749630e+01  7.1618939159854463e+01  2.4572154761680107e+01  2.5655237862161368e+01  1.0487846130218574e+02  2.2759511949026603e+02  4.1057094787005650e+02  5.4496329556345495e+02  5.7987623291594105e+02  5.7791623603344317e+02  5.8831418577318971e+02  5.9710660450735031e+02  4.2203312801893469e+02  7.6275656320823844e+00  8.4782005108639762e+00  7.3383930530318182e+01  1.0018837389522526e+01  1.1975685765828231e+01  1.0848984644339012e+01  6.0241036646543637e+02  5.7649405207157486e+02  4.8449767151709210e+02  6.7274632516406243e+01  8.2034075112204775e+01  7.2932752524977289e+01  2.6758056951450417e+01  1.6628611467649030e+01  3.3954949059402317e+01  3.8631346558404616e+01  1.0433076910210001e+02  4.1554441968141433e+01  2.8210792411492818e+01  1.1168839193967857e+02  2.1847347394704664e+02  1.3139601789469356e+02  6.0420629943526194e+01  5.8397643850888201e+01  2.9885672484620692e+01  2.8726698857448628e+01  2.8878263165479240e+01  4.7526938128781774e+02  4.2241746114912724e+00  6.7487842994014819e+00  3.7802008517903005e+01  6.7374433486671251e+02  5.3175280311640131e+02  5.2096239611753003e+02  4.9751817537214544e+02  5.8953954751684023e+01  1.6003377846181273e+01  1.4532893101229076e+01  2.5810663069103704e+01  4.2726419412719775e+02  4.1537862342425029e+02  1.0349939127052740e+02  1.1992150709328486e+02  9.2325824586704300e+01  2.2702606157584424e+02  1.9596931578818922e+02  5.9981675626694880e+02  5.1019720643833813e+02  4.9553711433627029e+02  4.4234828328186734e+02  6.8840951409799914e+01  5.0967651013606053e+02  4.8273980741157624e+02  5.0791653734496754e+02  4.8861184591253721e+02  3.6662726263687127e+01  7.1904035609077122e+00  4.7384273581947745e+01  1.4049504591706389e+02  3.4908130642322057e+01  7.4772182666274389e+01  6.1955621983855576e+02  1.4834037037970526e+02  1.6645029492773099e+02  8.1281648552850605e+00  5.0945346154098807e+01  3.4015514646153903e+01  1.8850908565504177e+01  1.8441149133299376e+01  5.5323593451898944e+02  6.0704285943471564e+02  5.8655846206195361e+02  3.7230630197614140e+01  4.9458408282999852e+02  4.5691402759068183e+01  4.2214820758335371e+01  1.1405114407846291e+01  1.8091044460324468e+01  3.9351190080532137e+02  3.4334726891330473e+02  3.7046434189182469e+02  1.9213025617026730e+02  2.0284978852090381e+02  1.7755012601484671e+02  1.9327513114361969e+02  2.6219462620354847e+02  3.7600977957498526e+02  1.7805362505949296e+02  1.4433104189415360e+02  1.6242426488472839e+02  3.0338592222680444e+02  2.8335073017241740e+01  1.8013874032727554e+02  1.8477269586431166e+02  5.8694366067466149e+02  5.6237925091751674e+02  5.1813043835891199e+02  1.8251996489087597e+02  2.0363233041382276e+02  2.2806081864428080e+02  5.2077486703889201e+02  4.3387580926638556e+00  5.6321801532318876e+00  3.1240613101475610e+01  2.8519291820399665e+01  2.4181763908380837e+01  4.8747512850802799e+01  5.5175616274898732e+02  3.3872126657312002e+01  3.8629743219422316e+01  6.7985497909686865e+02  6.9173225617448259e+02  6.8473285985840482e+02  7.0057313286345527e+02  6.1258850857681762e+02  4.2268475514731541e+01  7.4154092543680619e+01  8.1293947972059001e+01  3.8965875281076796e+02  6.8463364795095504e+02  1.1474682580352004e+02  7.9923253124506346e+01  4.3661223596683777e+02  4.9741094668639090e+02  6.7323199726798487e+02  2.9773955544753090e+02  3.8948079099680655e+01  2.3824832062600670e+01  3.4746669090827901e+01  5.1644051656803668e+01  7.8650160172221018e+00  8.6064857170617994e+00  1.7471252865688150e+01  4.3426621364899738e+00  5.3527021893795261e+00  7.3803628121048874e+01  1.1369401816553878e+02  9.4156570475985447e+01  8.6855608940945586e+01  4.3155870257655386e+02  4.2364504929426857e+02  5.2061462899698984e+02  1.1558080605955455e+02  1.6528206453645771e+02  4.6922225784341407e+01  8.0244076807600379e+01  4.7069237072334170e+02  1.0591043711867387e+01  6.3129946409645449e+01  4.9575488367207407e+02  4.9697598925242573e+02  5.0552322021135353e+02  1.7881490121273541e+02  3.3470009431043854e+02  3.2355817898273159e+02  5.0979150945971543e+02  1.0000000000000000e+01  1.0000000000000000e+01  3.2535096420613527e+01  3.9495779999604980e+02  2.9074018951287684e+01  3.8719384204575340e+02  9.3445195402739017e+01  8.2178761215526180e+01  1.0738487160146377e+02  2.8709449033633859e+01  1.4824034987490342e+02  1.4739369095643417e+02  5.0446579256472592e+02  1.4575067248983352e+01  1.7834292667237580e+01  1.0205896238797624e+01  4.5754833747235250e+02  3.5684317085932418e+02  1.2272604040366519e+02  2.8110278996959430e+01  6.7885627523611424e+02  5.4531117635730686e+02  5.2189609519977000e+02  5.3290529536965801e+02  3.9387259816231250e+01  5.5979790882731351e+01  9.8487271523948479e+01  7.9434535221125742e+01  1.6479294759954311e+02  5.7980184664060766e+02  1.4530711805068694e+02  1.0893058915965942e+02  2.8469944555443618e+01  1.3101797586343918e+02  1.9685338831835719e+02  1.7553241323084981e+02  1.9781039312908774e+02  4.5495755110533059e+02  4.1472269059928374e+02  4.5022409353068235e+02  2.6463541922885547e+01  3.1049547463478458e+01  6.4589748243858949e+01  1.7200007106875219e+02  1.0662627776105394e+01  2.8608750688849591e+02  2.1120553105939715e+02  4.0838105745944250e+02  5.8874175660758419e+02  5.7990699709157741e+02  5.0538275078099645e+02  7.0651063937524921e+00  4.8110275329934380e+00  1.0424623427711159e+01  1.0000000000000000e+01  6.5151136067332459e+02  5.2504888733373787e+02  4.3149295256601647e+02  7.2038692221101803e+02  5.1684670223781393e+02  4.4873746509807080e+02  2.0960993662405644e+02  2.2151968598982643e+02  2.7673874822642961e+02  3.2080554425850403e+02  4.6001422772021544e+02  7.0593968334415649e+02  7.3195025003850174e+02  4.4078932200925061e+02  1.3303290218688462e+01  3.9548356252332928e+02  4.5762693775087435e+01  3.2522157039300687e+01  7.1786166381408563e+01  2.9377170853606209e+01  5.5561880276381771e+01  3.7796554926936494e+01  2.2470956861861087e+01  3.0516211073545901e+02  4.4019780816706708e+02  4.6684100227296867e+01  6.8685686550552262e+01  3.7519985791840497e+01  8.2518725008487891e+01  7.0885025325674844e+00  7.7179634847343319e+00  3.8935781016934030e+01  2.2348685199647864e+01  6.2407173949485104e+02  3.8397417845663961e+02  6.3626995156647149e+02  5.6417876395996848e+02  7.5606834690711835e+01  1.1564695656099333e+02  6.3337340741471770e+01  2.4649729323766657e+01  8.1489007625468759e+01  6.1487869361855246e+02  4.9875031321910632e+02  1.0802079771831211e+01  1.8981401247126104e+01  1.6549568425890239e+01  1.3820838570750025e+01  9.4156849280726007e+01  4.6558247929703987e+02  5.2790692309964390e+02  2.5951777484644424e+01  4.1064181663727901e+01  5.0289673820805507e+02  5.2330272622116649e+02  2.7385382385691404e+01  2.3417265823758168e+01  2.6490679479948210e+02  8.3635182288505064e+01  2.8036086449468336e+01  1.4101082149105974e+02  7.7898072917321400e+01  4.2568117199686050e+01  1.7960511221878843e+02  1.8169051489857844e+02  1.5224793495456936e+02  6.8698019058166790e+02  4.7808755485915538e+02  2.2878229339524617e+02  1.1477067949574261e+01  3.5691760124579638e+01  1.4630236538008617e+01  6.1258640992976098e+02  4.3872163155930082e+02  5.3016474014762764e+02  2.2932299547620323e+02  3.2235071139522347e+02  1.0977184027948457e+01  7.2910434303374743e+01  3.1872374951796996e+02  5.4609959828712863e+02  5.9391484820933613e+01  5.8611067744144498e+02  4.3456744753725212e+02  3.3106119371880521e+02  7.6502114562608725e+01  1.9218589766495555e+02  5.2118540164503804e+02  5.0041712142900371e+02  4.1407414342238769e+02  4.2780972907164380e+02  1.1086930703934675e+01  2.5214201060218720e+01  1.3847710478970457e+01  3.8015392077307729e+02  4.1127730664290135e+02  5.5034094156407673e+02  4.8991840302866035e+02  4.6634556299941386e+02  5.6436275561804166e+02  2.1038488345493718e