<?xml version="1.0"?>
<VTKFile type="UnstructuredGrid"  version="0.1"  >
<UnstructuredGrid>
<Piece  NumberOfPoints="2714" NumberOfCells="4895">
<Points>
<DataArray  type="Float64"  NumberOfComponents="3"  format="ascii">367556.8685326607 1525596.688761796 0  367635.6454162283 1525823.217369616 0  367457.5391218169 1525718.608391134 0  367413.4052053969 1523738.46178056 0  367348.0694407795 1523939.087411043 0  367236.2087175669 1523782.883605691 0  369878.4326073452 1521169.023917394 0  370113.3639966646 1521128.790242808 0  370012.0444076875 1521346.335756192 0  370519.5707614782 1523448.365202598 0  370615.1303587087 1523255.382772654 0  370750.7910462556 1523415.114662456 0  376423.9375298842 1523682.695293898 0  376634.6707991196 1523596.969588988 0  376594.5045764699 1523792.648507408 0  375696.8 1519949.7 0  375834 1519872.5 0  375847.414820798 1520056.856909399 0  369238.2942761761 1526785.678212776 0  369366.4428086628 1526584.342894994 0  369398.3551030774 1526804.922935675 0  371969.3009210434 1522789.701665025 0  371738.6487545061 1522852.281830523 0  371900.8796158547 1522624.629445033 0  371425.5070403157 1522534.288007843 0  371473.2561622398 1522278.945252488 0  371611.3425196608 1522503.699859471 0  368797.0196716897 1521640.180446297 0  368625.5435072479 1521712.533879387 0  368576.769205305 1521565.933293161 0  370016.064299548 1526553.604662983 0  370261.9532867378 1526637.295360656 0  370237.5295595033 1526448.350200679 0  367246.9955641265 1524632.371428276 0  367436.1988852656 1524509.108942171 0  367273.940273155 1524429.052909301 0  371096.0549194419 1521918.344809461 0  371289.2571093031 1522039.054976813 0  371025.8745519355 1522124.766072093 0  371233.5942660079 1522256.037538296 0  371059.1648050447 1522732.560655446 0  370834.5846186446 1522735.82668061 0  370899.019758213 1522923.972750695 0  367061.8717006717 1523650.166849145 0  366894.3759170139 1523606.996158247 0  367090.2935738105 1523453.547969364 0  372269.2 1520364.7 0  372228.75 1520459.1 0  372127.2909965342 1520328.917232214 0  367961.7936162409 1524960.171481506 0  368174.9005272147 1524815.10852606 0  368183.5629486926 1524982.516556626 0  368369.0657051977 1525478.520724533 0  368556.9629551292 1525440.106124606 0  368446.6910427983 1525253.38442565 0  372427.7 1523939.5 0  372282.8 1523826.7 0  372457.7275449953 1523759.556508607 0  370814 1527648.1 0  370991.2 1527697.3 0  370837.8088132123 1527876.082565953 0  373684.0854429847 1522849.469749138 0  373706.5638464922 1522604.415332893 0  373548.9525334216 1522629.225194541 0  372569.3 1524305.2 0  372565.7 1524433.6 0  372723.5546467835 1524363.776235932 0  370046.303051076 1524572.166127309 0  369986.8341728356 1524350.109494177 0  369865.7143945241 1524573.383826711 0  373473.237289456 1521956.215963908 0  373414.1482971172 1521731.458659235 0  373647.2871746094 1521835.551153288 0  366869.882275239 1523444.9244648 0  370567.3180086876 1521108.256877615 0  370512.0605562314 1521328.717030598 0  370345.3945561261 1521128.790729532 0  370296.9218526106 1521330.895925475 0  374469.762565296 1521832.197612306 0  374309.7191742888 1522001.975480357 0  374473.2549986049 1522044.980067744 0  368708.6507849616 1521446.216046614 0  367526.564136176 1526042.387237334 0  367743.2117360363 1526013.942596992 0  376828.2493378383 1523370.749094268 0  376585.1288611156 1523331.024910233 0  376646.8502305686 1523187.150110551 0  371703.3975049325 1522350.794086597 0  367432.2 1527590 0  367425.15 1527712 0  367615.1005573744 1527661.772952298 0  369161.7011034793 1527853.187812885 0  369394.9441679117 1527877.961855744 0  369243.6215598701 1528037.264028243 0  377093.7 1520886.8 0  377120 1521008.8 0  376935.9747309929 1520969.199876658 0  376861.8566792359 1523223.177464137 0  368018.4717720668 1524749.044633803 0  371288.6172545406 1523212.654475274 0  371068.7580750075 1523227.802975934 0  371273.1419957184 1523035.568803921 0  371097.3355986325 1523009.283272407 0  371761.9 1526318 0  371759.9 1526419 0  371655.7899002746 1526300.270856368 0  370162.3 1527352.5 0  370328.3 1527456.5 0  370165.564576899 1527548.577246796 0  369178.7108667808 1526588.173205793 0  374089.4090867137 1521914.086110309 0  374175.6163590995 1522127.077440626 0  377935.9997784462 1522900.875251755 0  377962.4068828147 1523156.998206591 0  377759.9717448218 1522971.22347595 0  370843.3 1527281.2 0  370657.3 1527205.2 0  370811.9436073603 1527092.335381284 0  375361.5 1524752 0  375366.1 1524875.4 0  375171.2361313961 1524806.656624622 0  375712.8594066419 1522861.535253075 0  375519.403188414 1522833.970393947 0  375699.9247683773 1522626.74835428 0  368906.65724214 1524475.116049106 0  368963.6164795326 1524693.580246378 0  369074.7359113276 1524509.735990348 0  369183.1744145287 1524642.740013655 0  372614.1 1525296 0  372601.1 1525178 0  372791.4419586263 1525216.746224923 0  371722.9503528985 1522639.161274215 0  370946.8 1528472.7 0  370846.25 1528446.1 0  370937.5159073812 1528305.918415913 0  377326.8993589762 1526221.680008486 0  377248.8763072319 1526023.920351477 0  377443.8134418376 1526001.864615805 0  367968.855674012 1523051.067045691 0  367826.8532842874 1522882.983741697 0  368104.0047892614 1522913.823706597 0  367999.7585175493 1522744.915613957 0  372029.8021557635 1521554.891111263 0  372270.3048615661 1521638.766901271 0  372071.8877607996 1521752.633842893 0  369241.5521703925 1526362.631672005 0  374764 1524243.2 0  374622 1524185.5 0  374757.7316893615 1524055.044974951 0  374970.9319824258 1522214.950818359 0  375055.9965721103 1522414.262728182 0  375221.0642103962 1522288.82557579 0  375610.8411388294 1522379.050586003 0  375471.9798678126 1522505.788182151 0  367725.0306511762 1525659.979791859 0  369461.8514336404 1522686.578652653 0  369325.7931357214 1522574.43371931 0  369274.9674226277 1522784.563563443 0  370684.9028099918 1522876.372348789 0  370662.5725050617 1523045.013342659 0  371997.3292498062 1522175.411918824 0  372206.6653290422 1522097.468733905 0  372094.6632884323 1521959.797035913 0  368122.6760045114 1527519.658585825 0  367981.7050844238 1527361.622664753 0  367917.370466215 1527570.723899233 0  370705.8381560268 1523587.922583074 0  370318.2382281849 1523330.220653109 0  370450.7985408041 1523238.822767595 0  370745.7 1528419.5 0  370651.1 1528378.9 0  370787.08227775 1528331.896287755 0  377061.0005099441 1526192.699856112 0  377199.1343139021 1526405.82933355 0  367461.7 1528873.2 0  367419.7 1528782.8 0  367585.6561481796 1528808.421777048 0  377534.5258753212 1526117.28808253 0  368545.8991125686 1522402.775869067 0  368785.1428882789 1522406.609370836 0  368643.8716518922 1522271.329259185 0  375510 1520064.8 0  375586.8 1520021.7 0  375610.7970634174 1520170.273597197 0  377311.7608279101 1523591.38123993 0  377113.7828808944 1523713.34097865 0  377335.1881855017 1523771.416923207 0  375529.7225195215 1522659.017341137 0  370298.7845614782 1525606.884649076 0  370224.1837995814 1525429.36315148 0  370446.6563101923 1525421.462941243 0  368675.9520356602 1523478.487721528 0  368842.3148684524 1523674.911921741 0  368858.8725000288 1523397.4524167 0  375833.3897323037 1520551.073932602 0  375944.274923175 1520375.90411298 0  375690.6571795773 1520378.545309934 0  375802.7779353143 1520225.849182455 0  368154.8171688321 1523128.685810422 0  367975.3674447269 1523249.885139204 0  370240.2418508972 1522344.042073118 0  370423.9012479212 1522442.460369939 0  370381.1844958077 1522222.965719752 0  371350.4849300765 1521075.278432075 0  371192.0198693853 1520893.999867215 0  371210.7019349987 1521163.860507261 0  369447.9906264204 1525690.687780014 0  369675.5882272104 1525648.776731416 0  369566.6665210843 1525493.075584058 0  368696.9389951035 1522546.218218079 0  368572.2351483826 1526356.934630323 0  368624.5841956411 1526543.507110712 0  368810.1710608471 1526445.17267188 0  377491.4568707328 1523873.03862925 0  377666.6170136975 1524002.840849946 0  377633.9940284904 1523779.49473571 0  373927.429746418 1521354.126902407 0  373704.1680298123 1521337.404157995 0  373850.2797387158 1521174.176385279 0  377469.9916321592 1524212.035905191 0  377242.0438491494 1524219.772110329 0  377348.2429128066 1524071.278671011 0  369813.3183077947 1526592.328614761 0  369661.9484688566 1526748.092386516 0  369591.105033108 1526523.989529836 0  374268.0011419425 1521789.929146788 0  372855.5 1520827.7 0  372942.7 1520914.8 0  372767.1771698632 1521003.324289853 0  375547.5 1526370.3 0  375427.5 1526492.3 0  375329.023740678 1526283.925521063 0  374313.1109235433 1520427.729011548 0  374461.7875108205 1520366.473690172 0  374535.7431255503 1520569.001631873 0  368805.1234682718 1526259.017254621 0  375156.9018474495 1522072.375218998 0  377221.7 1527521.5 0  377291.2209686284 1527314.391267806 0  377459.182654544 1527477.803011921 0  376336.6533036984 1524125.59526692 0  376325.5265507974 1523887.767915289 0  376471.0894166245 1523922.963143505 0  375056.558473827 1520261.570991643 0  375249.2619754244 1520165.167494929 0  375282.751604315 1520367.402282884 0  376842.7868853742 1522876.061281961 0  376795.5864262318 1523080.607846792 0  376637.881666229 1522975.321066021 0  367561.8311449921 1523885.594947508 0  369807.4693216787 1520948.912264746 0  369676.1151069817 1521120.160372057 0  379233.2 1522611.3 0  379098.2 1522619.3 0  379161.4911016949 1522792.443926233 0  375802.9654217549 1520797.794230929 0  375984.088910524 1520681.822448112 0  368981.7981079365 1526343.681355379 0  369010.5322864333 1526143.045455827 0  368829.7335080333 1526067.551551798 0  368686.1150930594 1523885.127763727 0  368892.2795829005 1523903.31058096 0  374376.5623969506 1520695.308086834 0  370057.8404792854 1525572.144082733 0  372950.9616901336 1523526.476581232 0  373036.6207369418 1523730.7608121 0  372799.5488840759 1523660.921765043 0  376438.3 1519928.5 0  376528.3 1519975.5 0  376390.2209601246 1520017.358032857 0  369338.5327876152 1527710.130594918 0  378193.3307790572
[...]
<PointData  Vectors="f_221"> 
<DataArray  type="Float64"  Name="f_221"  NumberOfComponents="3" format="ascii">-3.3120040787536311e+01 -3.8654114440188529e+01 0.0000000000000000e+00  -4.1807256473565594e+01 -2.7664029770750794e+01 0.0000000000000000e+00  -2.7413579375892191e+01 -4.9177708792111879e+01 0.0000000000000000e+00  2.9683344549077848e+01 -1.3787031907538925e+01 0.0000000000000000e+00  3.0050132708730150e+01 -2.3486636695367572e+01 0.0000000000000000e+00  2.0970511774848347e+01 -1.5485981317230156e+01 0.0000000000000000e+00  1.8165097779634209e-01 2.5077928403329750e+01 0.0000000000000000e+00  -4.9698233810897668e-01 3.2530122627848677e+01 0.0000000000000000e+00  3.6439000613690600e+00 2.5833864021534581e+01 0.0000000000000000e+00  3.2131811899371243e+01 -2.6971909240940931e+01 0.0000000000000000e+00  3.9289734095454747e+01 -1.7782721780549156e+01 0.0000000000000000e+00  3.4989401969462321e+01 -1.6086018905200334e+01 0.0000000000000000e+00  7.2662797027953857e+01 1.6141863593170299e+01 0.0000000000000000e+00  7.5345046466310592e+01 1.8275407228041718e+01 0.0000000000000000e+00  7.0658706772138245e+01 1.5545460119910489e+01 0.0000000000000000e+00  1.4267721101506769e-15 2.2828353762410828e-15 0.0000000000000000e+00  -5.6583784563553921e-16 0.0000000000000000e+00 0.0000000000000000e+00  4.1974386444786527e+00 1.2111106529157000e+01 0.0000000000000000e+00  -1.7002487576851419e+01 -1.5994823304608805e+00 0.0000000000000000e+00  -3.2123659631451837e+00 -1.0489301883748492e+01 0.0000000000000000e+00  -5.1747450928745105e+00 8.1707329236075432e-02 0.0000000000000000e+00  5.3099048294289133e+01 2.4665943509069969e+01 0.0000000000000000e+00  5.0034987703458782e+01 2.2347727241029204e+01 0.0000000000000000e+00  5.4944383098519801e+01 2.5668896568826209e+01 0.0000000000000000e+00  4.9780526157758572e+01 2.3188497227067586e+01 0.0000000000000000e+00  5.0864368791718327e+01 2.8177315130916572e+01 0.0000000000000000e+00  5.2647012932737304e+01 2.5319189047217378e+01 0.0000000000000000e+00  9.3757701334373635e+00 6.0651388073286316e+00 0.0000000000000000e+00  9.0638007997759988e+00 3.0231679527886741e+00 0.0000000000000000e+00  1.0092956821948295e+01 8.7494714867211751e+00 0.0000000000000000e+00  3.2880287502720179e+01 -1.1250649440359350e+01 0.0000000000000000e+00  2.5563731332593285e+01 -1.5401864405307244e+00 0.0000000000000000e+00  2.8663450572517210e+01 -1.7264987060479505e+01 0.0000000000000000e+00  -6.0555360301268699e+00 -3.6750861983739128e+01 0.0000000000000000e+00  1.4445685554475098e+00 -3.8548147196330291e+01 0.0000000000000000e+00  4.2633857785970921e+00 -3.9358632160421976e+01 0.0000000000000000e+00  3.8826739215467157e+01 3.4396896715356192e+01 0.0000000000000000e+00  4.5238776213408777e+01 3.2913872594189627e+01 0.0000000000000000e+00  4.0056310095842434e+01 2.7222585261828925e+01 0.0000000000000000e+00  4.5866220808223488e+01 2.6543850958996327e+01 0.0000000000000000e+00  4.4643899532991348e+01 1.3576961067472855e+01 0.0000000000000000e+00  4.2374074151181837e+01 7.5257807791056388e+00 0.0000000000000000e+00  4.3753786213172418e+01 3.9933990296098751e+00 0.0000000000000000e+00  9.1510197901053676e+00 -8.3725096603110956e+00 0.0000000000000000e+00  3.6814530907448888e+00 -5.0415929185322224e+00 0.0000000000000000e+00  6.8773520595107307e+00 -5.7205172888765699e+00 0.0000000000000000e+00  -2.3214867675963254e-15 -6.9644603027889770e-15 0.0000000000000000e+00  -7.7309000969989580e-15 -8.4709745272888890e-15 0.0000000000000000e+00  -1.6983207800220413e+01 3.2962877078283768e+01 0.0000000000000000e+00  4.8990844623423078e+00 -2.6250760308189309e+00 0.0000000000000000e+00  -7.7488923748640592e-01 -1.5415330598966866e+01 0.0000000000000000e+00  2.1642185670237097e+00 -1.2155550121297484e+01 0.0000000000000000e+00  4.3794281367978645e+00 -1.6682933137211425e+01 0.0000000000000000e+00  -3.6944961736970278e-01 -2.5222548843187418e+01 0.0000000000000000e+00  3.0994416382691625e-01 -2.3506123601113988e+01 0.0000000000000000e+00  4.0851026121752724e-16 -5.3107272146113149e-16 0.0000000000000000e+00  -1.0700014321302701e-15 -2.1400028642605403e-15 0.0000000000000000e+00  7.5452620768581715e+00 6.3361557536730109e+00 0.0000000000000000e+00  0.0000000000000000e+00 0.0000000000000000e+00 0.0000000000000000e+00  4.6453990291184065e-13 -1.7997104310278851e-12 0.0000000000000000e+00  7.9275813206898692e+03 -3.2076550189651178e+04 0.0000000000000000e+00  5.9379285233855839e+01 8.2074781800594572e+00 0.0000000000000000e+00  5.7930105180935918e+01 9.9682576343391407e+00 0.0000000000000000e+00  5.8247445277429037e+01 9.1581616800218910e+00 0.0000000000000000e+00  -3.6607083576844624e-17 0.0000000000000000e+00 0.0000000000000000e+00  -7.9171117355076991e-17 -2.2519784492110786e-15 0.0000000000000000e+00  3.4383571252244310e-01 -1.3730788344630414e+01 0.0000000000000000e+00  5.2852635072365715e+00 -1.8588309615875080e+01 0.0000000000000000e+00  3.3389352678368560e+00 -1.9640772497146429e+01 0.0000000000000000e+00  1.7534612654606249e+01 -1.2537282083412101e+01 0.0000000000000000e+00  4.0761913289916038e+01 8.4981348788005278e+00 0.0000000000000000e+00  2.8182444935957868e+01 7.4767818890160598e+00 0.0000000000000000e+00  2.8474739394610989e+01 9.8742519181790982e+00 0.0000000000000000e+00  2.6908697252641347e+00 -3.7909982052378424e+00 0.0000000000000000e+00  2.9841507189269203e+00 4.7367789463137591e+01 0.0000000000000000e+00  8.3975559122458048e+00 4.1653040816544987e+01 0.0000000000000000e+00  3.8859276101690271e-01 4.0199401856132475e+01 0.0000000000000000e+00  5.4969136548306716e+00 3.4446851874208718e+01 0.0000000000000000e+00  1.4180058160553424e+01 1.8605838066920395e+01 0.0000000000000000e+00  3.0570599552626909e+01 1.7157862760024280e+01 0.0000000000000000e+00  3.0169176002599041e+01 1.7501371237604911e+01 0.0000000000000000e+00  1.0755389460291015e+01 9.1946181880555411e+00 0.0000000000000000e+00  -3.2814373919761159e+01 -3.9273086622301832e+01 0.0000000000000000e+00  -4.5466894775396135e+01 -1.3741113049351537e+01 0.0000000000000000e+00  7.7478805116759361e+01 2.2672951498936413e+01 0.0000000000000000e+00  7.5686170952027325e+01 2.2877960714224617e+01 0.0000000000000000e+00  7.4776128256548503e+01 2.5306912433643522e+01 0.0000000000000000e+00  5.4337365995675150e+01 2.8386253385674447e+01 0.0000000000000000e+00  8.3039704070343790e-16 5.0849414839783950e-15 0.0000000000000000e+00  2.7639334606617922e-16 -2.2111467685294337e-15 0.0000000000000000e+00  -2.5698884309415653e+00 -1.7413696693224839e+01 0.0000000000000000e+00  -7.6961737672976412e+01 -1.9759700504522066e+01 0.0000000000000000e+00  -3.8053576622351727e+01 -1.9905345104906331e+01 0.0000000000000000e+00  -2.7025314993831997e+00 -2.3506659608910077e+01 0.0000000000000000e+00  -1.2820139570924898e-15 -1.5714996124087218e-15 0.0000000000000000e+00  5.1404896985617264e-16 -2.0561958794246906e-15 0.0000000000000000e+00  -3.4144687569398275e+00 1.2760746468083342e+01 0.0000000000000000e+00  7.6357186351112247e+01 2.5166911613312827e+01 0.0000000000000000e+00  6.5856399666661058e-01 -6.8104728491925215e+00 0.0000000000000000e+00  3.8431306010724867e+01 8.6384626695271933e+00 0.0000000000000000e+00  3.8647673171811910e+01 1.1570044993335544e+00 0.0000000000000000e+00  4.3054291212814555e+01 1.1974323519210248e+01 0.0000000000000000e+00  4.3127349290273379e+01 8.0539288018780120e+00 0.0000000000000000e+00  8.3023332979932135e-16 0.0000000000000000e+00 0.0000000000000000e+00  -1.1813876921283062e-15 -1.1772543185627917e-16 0.0000000000000000e+00  -5.3054196559839202e+00 -3.3162974765072235e+00 0.0000000000000000e+00  -3.7685684850888024e-13 -1.1305705455266408e-12 0.0000000000000000e+00  -4.2646362093399961e-13 2.2865197532501220e-12 0.0000000000000000e+00  2.3277864168738365e+03 -1.3783568858206579e+03 0.0000000000000000e+00  -1.8856342652783951e+01 -8.3482604995275924e+00 0.0000000000000000e+00  2.6418854691353356e+01 1.5384513470187306e+01 0.0000000000000000e+00  3.9235195280423810e+01 1.7419256330712201e+01 0.0000000000000000e+00  5.9648668612726347e+01 7.2645641665879088e+00 0.0000000000000000e+00  7.2972970852998557e+01 7.1636796755127765e+00 0.0000000000000000e+00  6.5282969697973442e+01 1.1147396247271219e+01 0.0000000000000000e+00  -6.8034588000554052e-16 -2.6972215706106530e-16 0.0000000000000000e+00  5.1664779877958300e-16 0.0000000000000000e+00 0.0000000000000000e+00  4.3620806033887414e+00 -5.0875953141750667e+00 0.0000000000000000e+00  5.2770730647542030e-16 -4.0530085803820085e-15 0.0000000000000000e+00  -5.3029217795375949e-16 -5.3029217795375952e-15 0.0000000000000000e+00  -1.9796951757467365e+00 -2.8843966716946735e+01 0.0000000000000000e+00  6.5607595275694919e+01 2.0733679060563670e+01 0.0000000000000000e+00  6.4597555630440937e+01 2.0590025226267571e+01 0.0000000000000000e+00  5.7289308898402119e+01 2.0010699217807421e+01 0.0000000000000000e+00  4.3637447200657968e+00 -2.5202112843894014e+01 0.0000000000000000e+00  5.9538390700822088e+00 -2.4870555461029742e+01 0.0000000000000000e+00  -2.4580020409980889e+00 -3.0817476699395822e+01 0.0000000000000000e+00  -6.2654516691363362e+00 -2.4012723528863560e+01 0.0000000000000000e+00  -7.5856127596874556e-16 2.3457603756401433e-15 0.0000000000000000e+00  -3.9997642926101610e-16 -6.1811295572863583e-15 0.0000000000000000e+00  -2.7182641453576735e+00 -2.2229209374509683e+01 0.0000000000000000e+00  5.2863388634801296e+01 2.4428582463965270e+01 0.0000000000000000e+00  6.8954280272423759e-14 1.1226461390904010e-13 0.0000000000000000e+00  7.5319804968013825e-15 2.0379065953754075e-13 0.0000000000000000e+00  4.0485494939447797e+01 6.9996702714822888e+01 0.0000000000000000e+00  -1.5066175441708793e+01 -1.3794776619921164e+01 0.0000000000000000e+00  -1.9669665748186713e+01 -1.8173139348175624e+01 0.0000000000000000e+00  -1.8545574072519713e+01 3.1469864475958493e+00 0.0000000000000000e+00  2.4450140484258654e+01 -4.1833526999716399e+00 0.0000000000000000e+00  1.8007123671263177e+01 -3.5909074084252279e+00 0.0000000000000000e+00  2.4053182553001186e+01 -4.5825320555242985e+00 0.0000000000000000e+00  1.9218973442762231e+01 -4.0630362107707914e+00 0.0000000000000000e+00  4.3407026783869362e+01 4.3935997431759766e+01 0.0000000000000000e+00  4.4570093544063454e+01 3.4727006633962972e+01 0.0000000000000000e+00  5.0850655263076249e+01 3.7278868857407417e+01 0.0000000000000000e+00  -1.3007926825526509e+01 -1.2785257112290525e+01 0.0000000000000000e+00  0.0000000000000000e+00 0.0000000000000000e+00 0.0000000000000000e+00  6.3403595980071942e-15 2.2579046936324428e-16 0.0000000000000000e+00  2.3116975085998760e+01 -7.4569129436258486e-01 0.0000000000000000e+00  3.6460460875842209e+01 2.7602050135352645e+01 0.0000000000000000e+00  5.1466356053618199e+01 2.5461232322055583e+01 0.0000000000000000e+00  4.3725120567536557e+01 2.5636163525730314e+01 0.0000000000000000e+00  4.2854475141715760e+01 1.9750757118480752e+01 0.0000000000000000e+00  5.3335855124203249e+01 2.0033190787645413e+01 0.0000000000000000e+00  -4.0009055946103238e+01 -8.4651701222775486e+00 0.0000000000000000e+00  2.5537609181939569e+01 -1.1736902077300694e+01 0.0000000000000000e+00  2.4498045438193877e+01 -1.1137374738152946e+01 0.0000000000000000e+00  2.5831126216028171e+01 -1.1822136657965022e+01 0.0000000000000000e+00  4.1653984030037130e+01 -2.9779605219618741e+00 0.0000000000000000e+00  4.1428204725888847e+01 -9.5347748913278743e+00 0.0000000000000000e+00  5.7175835108728869e+01 3.0713414195868520e+01 0.0000000000000000e+00  5.7015497910400633e+01 2.9440980527255139e+01 0.0000000000000000e+00  5.5372066892382108e+01 3.2553887605211756e+01 0.0000000000000000e+00  -8.0117426338439756e+01 -4.0622196160797337e+01 0.0000000000000000e+00  -4.5642430876010756e+01 -4.1252106353026498e+01 0.0000000000000000e+00  -3.4075369018219895e+01 -2.6378468239947601e+01 0.0000000000000000e+00  2.6197079091537251e+01 -2.4347437498627936e+01 0.0000000000000000e+00  2.8874022137931679e+01 -2.7327128291906888e+01 0.0000000000000000e+00  3.5229386542347250e+01 -2.2359156822493901e+01 0.0000000000000000e+00  3.4364799261117975e-15 0.0000000000000000e+00 0.0000000000000000e+00  -2.3956624530410836e-14 2.8747949436493004e-13 0.0000000000000000e+00  -4.0596494320651693e+01 -3.6764682429612299e+02 0.0000000000000000e+00  -1.2129912433854269e+01 -2.0060619728121104e+01 0.0000000000000000e+00  -7.2333188104388721e+00 -1.6725067293189507e+01 0.0000000000000000e+00  -3.5928990826589434e-16 -2.8743192661271547e-15 0.0000000000000000e+00  -2.5911113928547260e-16 2.7638521523783744e-15 0.0000000000000000e+00  -2.1252135671825108e+00 -1.7106267289164695e+01 0.0000000000000000e+00  -2.3189766526906617e+01 4.1289885668743000e+00 0.0000000000000000e+00  2.1937455048951200e+01 -7.9737298896780624e+00 0.0000000000000000e+00  2.1948062747779808e+01 -9.6918655684588781e+00 0.0000000000000000e+00  2.0705945778936258e+01 -8.8194573565644614e+00 0.0000000000000000e+00  -2.3049088778261463e-15 -7.6830295927538219e-16 0.0000000000000000e+00  -1.4007491349976181e-15 6.5341079821697374e-16 0.0000000000000000e+00  5.8987990974273865e+00 5.3723015811207731e+00 0.0000000000000000e+00  8.0252399259206229e+01 1.2818352963113705e+01 0.0000000000000000e+00  7.7473898836534303e+01 1.3031244703445234e+01 0.0000000000000000e+00  7.8261384547876716e+01 8.3929455353662004e+00 0.0000000000000000e+00  5.9034161778420007e+01 2.0020657830350206e+01 0.0000000000000000e+00  8.1763789290291982e+00 -1.5881037330159014e+01 0.0000000000000000e+00  2.4688291442397230e+01 -2.4053909356850575e+01 0.0000000000000000e+00  1.1680865941941873e+01 -1.8315624123044280e+01 0.0000000000000000e+00  3.0746070470739699e+01 -5.3645173845964100e+00 0.0000000000000000e+00  2.7830182156156226e+01 -4.8875258553369392e+00 0.0000000000000000e+00  2.9421928085384575e+01 -6.7549587615718503e+00 0.0000000000000000e+00  7.9512841539400920e+00 9.1711521131982074e+00 0.0000000000000000e+00  1.1874382840819637e+01 1.5962393421276621e+01 0.0000000000000000e+00  7.9185974751487356e+00 7.6088272651540922e+00 0.0000000000000000e+00  9.7342212513553221e+00 1.2394784682280456e+01 0.0000000000000000e+00  2.8445787819665899e+01 -4.6482311208809977e+00 0.0000000000000000e+00  2.8811075913253006e+01 -4.4191079198478791e+00 0.0000000000000000e+00  2.9329412595673123e+01 4.3364957456912459e+00 0.0000000000000000e+00  3.2798556893853217e+01 6.5120122398788132e+00 0.0000000000000000e+00  2.9300376583948932e+01 1.1309822006874896e+01 0.0000000000000000e+00  1.8539061762798575e+01 6.9955523939888479e+01 0.0000000000000000e+00  7.0715190919011377e+00 7.0025736207134941e+01 0.0000000000000000e+00  2.0095685755972220e+01 6.5346512569852237e+01 0.0000000000000000e+00  2.2142709204375233e+01 -2.3587285857877053e+01 0.0000000000000000e+00  2.3111690061528041e+01 -2.8465261114930300e+01 0.0000000000000000e+00  2.3175317325130859e+01 -1.9722630082963232e+01 0.0000000000000000e+00  2.3503957706244158e+01 -9.0166474279134441e+00 0.0000000000000000e+00  -4.7646587802593338e+01 3.1517601463894589e+01 0.0000000000000000e+00  -4.1905453483563676e+01 6.0903910058231363e-02 0.0000000000000000e+00  -3.6497967691145206e+01 -2.7060492836016987e+00 0.0000000000000000e+00  7.6438678732309938e+01 4.7163417847201643e+00 0.0000000000000000e+00  7.3660364953109593e+01 2.2826846389289934e+00 0.0000000000000000e+00  7.9366160473821651e+01 6.0088206942913365e+00 0.0000000000000000e+00  -6.9841485118958868e-01 1.8619285216011555e+01 0.0000000000000000e+00  7.1884178658046483e-01 2.3555353060995625e+01 0.0000000000000000e+00  7.2364329107840508e-01 2.4145215904866816e+01 0.0000000000000000e+00  5.8474161285051117e+01 -4.5961745615035055e+00 0.0000000000000000e+00  5.1349189464996783e+01 -4.3790338092206547e+00 0.0000000000000000e+00  6.6489832568345818e+01 7.2169172496890965e-01 0.0000000000000000e+00  2.7723877973621661e+01 -1.5366828382305421e+01 0.0000000000000000e+00  2.3721330783425834e+01 -1.4607692831860385e+01 0.0000000000000000e+00  1.7484037429209604e+01 -9.4682985387733751e+00 0.0000000000000000e+00  1.3423067897401909e+01 1.8676251476003426e+01 0.0000000000000000e+00  0.0000000000000000e+00 1.6588972971317788e-15 0.0000000000000000e+00  -1.8932717522091949e-16 3.0292348035347118e-15 0.0000000000000000e+00  -6.4777786713923813e-01 1.0937466129111518e+01 0.0000000000000000e+00  5.7621780245831035e-17 -3.7363565533687470e-16 0.0000000000000000e+00  6.0096460310939383e-16 -1.5297280806420934e-15 0.0000000000000000e+00  -8.1328255832082685e-01 -1.4877627661929086e+01 0.0000000000000000e+00  1.6394627149138010e+01 7.4866898880701784e+00 0.0000000000000000e+00  1.3192990668350633e+01 1.5444818869215705e+01 0.0000000000000000e+00  1.8830767580944183e+01 1.4788554878922710e+01 0.0000000000000000e+00  -3.5285193695021434e+01 1.9655748496563600e+01 0.0000000000000000e+00  2.1388717545574007e+01 2.8398212579664282e+01 0.0000000000000000e+00  2.1864655880254557e-15 3.7482267223293528e-15 0.0000000000000000e+00  -1.1406420624169337e+01 -2.6509425165999652e+01 0.0000000000000000e+00  -2.2545724064558698e+01 -2.3897625439866324e+01 0.0000000000000000e+00  5.0881620348820654e+01 8.5677642450884353e+00 0.0000000000000000e+00  6.5036295301160877e+01 1.2742866705305149e+01 0.0000000000000000e+00  6.5114105855199185e+01 1.3274412289689506e+01 0.0000000000000000e+00  -9.7278771542691960e+00 2.2024870630522020e+01 0.0000000000000000e+00  -9.1918679216666828e+00 1.7017361293910866e+01 0.0000000000000000e+00  -1.5253151688006103e+01 1.8678721299594276e+01 0.0000000000000000e+00  6.3851931023761971e+01 3.0381504119574810e+01 0.0000000000000000e+00  7.2899640531310851e+01 2.7328463678196968e+01 0.0000000000000000e+00  6.9016545295512017e+01 2.7471945047695389e+01 0.0000000000000000e+00  3.6410579715458134e+01 -1.5927631914933313e+01 0.0000000000000000e+00  -2.8088974591106051e+00 2.5656092722720114e+01 0.0000000000000000e+00  7.7567747864979453e-01 1.9902984200400070e+01 0.0000000000000000e+00  6.9179289260455320e-15 -8.3960605351625023e-16 0.0000000000000000e+00  7.5820611148968688e-15 -9.4775763936210861e-16 0.0000000000000000e+00  3.4379395169708594e+01 -5.3490152710995336e+00 0.0000000000000000e+00  -1.9757163287704211e+00 7.1967686621091493e+00 0.0000000000000000e+00  1.0159634730757121e+01 1.1600233702449611e+01 0.0000000000000000e+00  -2.8346264332198313e+01 -6.1007193367538806e+00 0.0000000000000000e+00  -1.9115444198185813e+01 6.9480290771548816e+00 0.0000000000000000e+00  -9.2468307375202716e+00 1.4477680329722000e+01 0.0000000000000000e+00  2.2746796556587476e+01 -1.6353380410198387e+01 0.0000000000000000e+00  1.2308854736669039e+01 -2.2312458480496574e+01 0.0000000000000000e+00  8.3781383723917244e+00 1.3034787577135920e+00 0.0000000000000000e+00  1.5877109265669882e+01 -2.2316376462071425e+01 0.0000000000000000e+00  3.0720367859620861e+01 -3.0616575923544227e+00 0.0000000000000000e+00  2.2420778933239838e+01 -1.1035872433236758e+01 0.0000000000000000e+00  1.8811479711974144e+01 -5.9914558000909368e+00 0.0000000000000000e+00  8.3850157821182482e-16 0.0000000000000000e+00 0.0000000000000000e+00  -6.5068150033701694e-16 1.3013630006740339e-15 0.0000000000000000e+00  -4.4811721901384365e+00 1.2552243215114611e+01 0.0000000000000000e+00  -6.8624854664354970e+01 2.6188592692153270e+00 0.0000000000000000e+00  6.8318320589338299e+01 2.8663987552353007e+00 0.0000000000000000e+00  5.4106926114603716e+01 -6.6162714140952195e-01 0.0000000000000000e+00  6.5033297188025387e+01 -3.4814262070752255e-01 0.0000000000000000e+00  2.4350205081269714e+01 7.1267806737954459e+01 0.0000000000000000e+00  9.2653759822444471e+01 1.5718836269570366e+02 0.0000000000000000e+00  4.5169932794480280e+02 1.4664634658396565e+02 0.0000000000000000e+00  1.5776305966852805e-15 3.1552611933705610e-15 0.0000000000000000e+00  -4.4615890326971016e-16 0.0000000000000000e+00 0.0000000000000000e+00  -4.4546955312834408e-16 -4.4546955312834408e-16 0.0000000000000000e+00  -7.0984409141906610e+00 -5.8770924538012457e+00 0.0000000000000000e+00  -6.335243