<?xml version="1.0"?>
<VTKFile type="UnstructuredGrid"  version="0.1"  >
<UnstructuredGrid>
<Piece  NumberOfPoints="2747" NumberOfCells="4937">
<Points>
<DataArray  type="Float64"  NumberOfComponents="3"  format="ascii">374735.7799638459 1516706.839840921 0  374739.391280542 1516456.6161465 0  374556.6948891509 1516571.511652884 0  374200.8642287084 1516160.854307781 0  374000.769721084 1516179.399079973 0  374114.2033677427 1516374.53148027 0  372042.9890798798 1520007.421112282 0  371825.0353347403 1519933.892552006 0  371854.3469462972 1520144.344829202 0  370817.7484567259 1520286.600450408 0  370741.9745007821 1520074.194543695 0  370986.4811829398 1520196.894196813 0  370988.202015178 1520011.134292385 0  377296.0174492767 1512169.521341375 0  377070.6437485384 1512177.633972039 0  377141.1942309348 1512002.280743318 0  375222.7 1518269.2 0  375211.1 1518382.75 0  375033.9902819632 1518307.289375873 0  367767.5007689701 1519912.81777711 0  367886.7660636401 1519746.112850809 0  367678.1661676544 1519672.115783512 0  372373.6682367751 1516475.946078839 0  372572.8918324865 1516359.203281422 0  372348.6080799515 1516303.053064298 0  376302.5629406502 1513016.917238621 0  376272.0161300649 1513228.442963104 0  376085.9762011967 1513093.842012991 0  368645.7 1518322.8 0  368863.8418436811 1518451.413717529 0  368727.8130588926 1518570.439505604 0  370509.186856545 1517534.806639181 0  370779.7946275132 1517490.158544781 0  370679.441511657 1517673.949921395 0  375621.958357177 1514716.175549351 0  375830.8974265337 1514782.666882564 0  375749.9218950004 1514924.967969941 0  366009.090157418 1521277.781787195 0  365900.6220418175 1521063.563934361 0  366143.6222189557 1521141.150517148 0  366106.6338923891 1520965.591226225 0  370292.5279978727 1520601.392165591 0  370226.0032985894 1520406.405228568 0  370056.3220271791 1520605.574166712 0  369993.8387169564 1520397.886204289 0  366164.7896977397 1520563.923183497 0  365917.9919909575 1520651.16319636 0  365943.0147605119 1520474.961133635 0  374084.7514746638 1517539.691493491 0  373903.9786315896 1517722.728676157 0  374150.2244717617 1517682.127619885 0  373906.518533338 1526925.537767712 0  374134.7800195852 1526916.895696503 0  374007.9243490083 1527103.627514492 0  371099.1127123136 1518052.158374029 0  370889.1032643507 1518157.178437387 0  371101.047988827 1518261.666303647 0  370356.1609056261 1515238.454442641 0  370256.314786081 1515002.698328678 0  370150.4798388656 1515141.615542152 0  375366.6980913329 1513868.154324197 0  375492.8992928717 1514045.481411183 0  375538.3306282149 1513767.869739861 0  375664.2429664929 1513911.166332509 0  368466.5 1518645.7 0  368565.7 1518490.5 0  368647.3908860907 1518743.85698541 0  373898.1323852157 1528427.130505799 0  373745.5237657604 1528231.50956668 0  373941.8621003359 1528217.151820582 0  370157.8879169 1517569.503157192 0  369939.8027889362 1517427.91792633 0  369990.2145620591 1517655.175668266 0  370446.908536813 1515065.405389877 0  375007.5 1517476 0  375066.7 1517628.8 0  374907.8389624909 1517574.39903147 0  367415.4216042362 1519984.034113622 0  367316.8317543299 1519788.228827517 0  367552.7807105401 1519840.621244942 0  367484.2471848474 1519639.089849048 0  370502.2826951375 1516079.206475656 0  370369.195803861 1515890.357311658 0  370269.7314238755 1516046.860118093 0  370677.0983417081 1516193.113211985 0  370738.1261253569 1515998.850970902 0  373761.0818908745 1515573.708629838 0  373619.978952905 1515384.064746571 0  373545.0283858347 1515586.888819938 0  379303.2854030539 1528545.924845373 0  379425.281072069 1528316.699314245 0  379479.8144607657 1528580.298135072 0  370921.1312272802 1519476.648029194 0  371099.858093138 1519615.222423325 0  370857.6342290214 1519624.493076205 0  373495.2683185124 1516418.521689531 0  373707.0106765009 1516335.382584808 0  373523.1157892273 1516262.418228871 0  369962.8 1517275.3 0  370156 1517216.5 0  370121.8705318819 1517378.401206055 0  368612.3482018905 1520472.030774031 0  368782.9143535367 1520552.131142535 0  368597.0004665522 1520676.202491025 0  368783.8054399641 1520754.774212712 0  366920.9369631655 1519976.081418447 0  366765.243674586 1519879.449151154 0  366931.9261026626 1519726.576153214 0  374534.4396944677 1516792.917255719 0  370748.0005395916 1519765.711062982 0  370613.5144470303 1519572.178717461 0  370498.1495184739 1519755.46292791 0  366124.8447744848 1520363.67828998 0  376718.522875023 1514105.539516179 0  376544.7149498558 1514280.247994735 0  376559.9911125051 1514062.6004773 0  371546.5180025869 1516083.661389065 0  371616.4977842487 1515877.31346193 0  371372.9439526909 1515865.681728827 0  373640.0302011937 1517795.22745503 0  373682.2703280724 1517598.514751269 0  366557.9869719932 1520987.095829924 0  366755.6205587587 1521093.169333388 0  366550.0629817304 1521191.403914059 0  374506.2794078752 1518645.050035941 0  374392.5646814218 1518832.211297654 0  374351.4691693218 1518613.190899606 0  373895.6476940611 1517512.112577214 0  377444.3 1513674.5 0  377541.5 1513767.7 0  377411.1171062742 1513858.020244304 0  374993.7692089967 1513042.351876731 0  375256.3940294007 1512990.362445806 0  375153.1296787279 1513213.262582565 0  369798.599249021 1520272.377917809 0  369779.4977817969 1520472.333105098 0  371200.0680778399 1519331.306587075 0  371318.5703686032 1519507.262114177 0  371401.2162556651 1519281.227960361 0  373473.7 1527820.8 0  373412.5 1527726 0  373579.852386096 1527685.116813977 0  376631.8539533167 1513874.008644104 0  376849.052092807 1513865.22762167 0  376936.2491109152 1514084.2515851 0  367714.7270035305 1521172.649636958 0  367917.9564601954 1521267.683966244 0  367886.341575756 1521049.329835391 0  371287.2232378765 1516836.855317761 0  371201.1699249336 1516986.332551795 0  371449.1701464228 1516979.274903817 0  371371.8221964581 1517455.140531653 0  371193.4367869473 1517598.776212744 0  371370.912428558 1517641.453709483 0  373681.6275165296 1528401.363478355 0  376610.3551761989 1513023.984803177 0  376838.378820357 1513013.797836095 0  376641.4581726966 1512866.005104395 0  372076.5 1527418 0  372137.7 1527336.8 0  372234.4787503914 1527468.226667841 0  370583.5870687083 1515881.112340559 0  368848.9764700645 1518677.606731725 0  369056.2744665567 1518584.629853332 0  371048.7762215674 1516926.860563923 0  371144.7739799853 1516735.847018079 0  375217.4683928452 1514113.801296377 0  375108.6265345397 1514361.409009145 0  375326.2127940517 1514308.829814524 0  376939.2886328542 1512000.194893428 0  376723.6749290209 1512078.719117814 0  376845.8750071187 1511852.087540796 0  375564.782253324 1515560.671522271 0  375366.9838108982 1515710.719821707 0  375543.3161179402 1515803.261924036 0  374034.0900191081 1516961.909481205 0  373837.39433556 1516866.935923191 0  374015.1059711852 1516746.809702287 0  369097.3285755742 1518353.376486619 0  369283.6585169891 1518529.192078992 0  379697.7 1528243.2 0  379767.7 1528236.8 0  379744.8139846617 1528378.982119502 0  370326.4569424403 1518429.655727919 0  370271.1907602182 1518211.623391653 0  370497.0432348734 1518295.777210008 0  369200.0552545572 1518776.444211426 0  367639.2 1519261.3 0  367691.1137440465 1519450.290443236 0  367453.2098243235 1519436.253698494 0  371516.2135150912 1519416.64244266 0  369772.2218601287 1518805.166916542 0  369981.1498975541 1518817.264783362 0  369801.8684268866 1518653.553699818 0  374129.2 1513241.3 0  374274.3 1513270.5 0  374228.9083288074 1513407.358455804 0  376835.7920641824 1512842.353348419 0  381944.3 1529343.5 0  381770.3 1529421.5 0  381807.0621809612 1529178.292548119 0  371175.5770011749 1517427.369607422 0  373032.8000259782 1519185.920496872 0  372863.1782685805 1519322.264286461 0  372827.6515761724 1519086.781079355 0  378219.9 1512442 0  378213.9 1512561 0  378033.3250072608 1512492.244118064 0  371279.7618813435 1520238.147743044 0  371450.8917566454 1520112.406579985 0  371211.8539145854 1520042.137372587 0  372235.018274397 1515854.164674743 0  372052.0198918319 1515672.19441887 0  372277.1644003957 1515646.388158975 0  372812.1197359322 1519507.706570946 0  372642.8314218058 1519366.773512872 0  381797.5959884672 1528955.137125702 0  381618.8668001423 1529050.275154082 0  372318.5236915281 1518795.185847601 0  372517.260559752 1518922.823880471 0  372314.3671256246 1518972.824599078 0  381654.7167832025 1529334.427310772 0  372075.7733888853 1517051.649581196 0  371921.7764985741 1516876.849304819 0  372117.2899444767 1516836.129458263 0  369161.1500563722 1517939.605074113 0  369251.985135228 1518177.814601979 0  369377.8890316332 1517953.01320347 0  369467.131150987 1518151.680412176 0  374804 1528043.5 0  374708 1528203.9 0  374642.6152075189 1528047.963317914 0  381574 1527489.2 0  381419.2 1527544 0  381413.5688333916 1527333.23096646 0  369004.177203368 1518935.681943097 0  368808.2851163486 1518861.041050636 0  369019.2284998901 1518759.342542493 0  371098.1045475393 1520350.943571662 0  371293.1818720821 1520441.903450076 0  374042.3684453133 1515817.72466619 0  374256.6582120747 1515775.40801422 0  374231.8321365098 1515972.083767588 0  370059.4588129887 1516116.86856821 0  369941.1381052432 1515969.193063826 0  369811.1597895455 1516115.098526454 0  373916.2395907824 1515981.735646461 0  373826.1929812924 1516176.788653926 0  373624.3244208031 1516502.982322432 0  376667.4476378575 1511872.688905921 0  371357.6363219303 1515394.001893902 0  371177.7323959109 1515403.826998347 0  371259.3348460203 1515197.327147163 0  380692.8 1529266.3 0  380538.8 1529178.3 0  380693.5808942512 1529052.017373541 0  373714.5903954255 1519016.51701191 0  373557.6849104519 1519183.563461256 0  373438.3362593044 1519064.233161554 0  371329.1157235735 1517126.201684735 0  374076.4545572564 1516007.879823125 0  366393.3193757921 1520505.098884523 0  366260.6002974563 1520741.217671655 0  375065.0164033848 1514194.513269269 0  366438.8761179933 1520711.623230052 0  372510.8 1514175.3 0  372675.7 151
[...]
<PointData  Vectors="f_221"> 
<DataArray  type="Float64"  Name="f_221"  NumberOfComponents="3" format="ascii">-6.4354206850091664e+00 -4.4094099282582748e+00 0.0000000000000000e+00  -1.1894721841868302e+01 -1.0488858129510499e+00 0.0000000000000000e+00  -1.5715979439083076e+01 3.6217946218739669e+00 0.0000000000000000e+00  -2.5439433913228754e+01 2.7179351924593245e+01 0.0000000000000000e+00  -2.6888019303407248e+01 3.0568534089281457e+01 0.0000000000000000e+00  -2.4124118393104194e+01 2.7205529777571130e+01 0.0000000000000000e+00  -2.3786563993420668e+01 5.2357845336435453e+01 0.0000000000000000e+00  -2.4489097558004563e+01 6.0329597891610703e+01 0.0000000000000000e+00  -2.1208381948717079e+01 5.9574233792735008e+01 0.0000000000000000e+00  -1.4521747470049869e+01 5.7984544969149681e+01 0.0000000000000000e+00  -1.6733577636489809e+01 5.5477093520684072e+01 0.0000000000000000e+00  -1.7786579584188416e+01 6.2032723936650740e+01 0.0000000000000000e+00  -2.1067820521661989e+01 6.1074754727719011e+01 0.0000000000000000e+00  -2.8535527378341737e+01 1.0531650321238136e+01 0.0000000000000000e+00  -2.5729738672965336e+01 2.1348621151120653e+01 0.0000000000000000e+00  -2.2717011593447250e+01 1.6947975481133597e+01 0.0000000000000000e+00  -1.6899717542921255e-15 2.8166195904868761e-16 0.0000000000000000e+00  5.4852555165010046e-16 1.6455766549503016e-15 0.0000000000000000e+00  -6.0348411978049432e+00 -5.1172417522606697e+00 0.0000000000000000e+00  -2.6781130530425323e+00 5.5227410152556393e+00 0.0000000000000000e+00  -4.8191739253664849e+00 4.3292603050882477e+00 0.0000000000000000e+00  -3.4451513293669871e+00 4.3414715988965753e+00 0.0000000000000000e+00  9.1550618139018913e-01 3.3872194213788426e+01 0.0000000000000000e+00  -3.5480239796128887e+00 3.3277764878451016e+01 0.0000000000000000e+00  4.2812009565935094e+00 2.8038981739398885e+01 0.0000000000000000e+00  -2.6575763341586160e+01 4.1075487211065202e+01 0.0000000000000000e+00  -2.8533071391449798e+01 3.3062794886514475e+01 0.0000000000000000e+00  -2.1346009119671468e+01 4.1085296006080767e+01 0.0000000000000000e+00  1.0069593546145007e-15 -2.4899654715909346e-15 0.0000000000000000e+00  -8.6209336509608647e-01 -8.0805291703528148e-01 0.0000000000000000e+00  -4.1760090346587937e+00 1.0374172698228000e+01 0.0000000000000000e+00  1.1123530984862109e+01 7.4630465264115831e+00 0.0000000000000000e+00  5.8679917273484286e+00 7.7878000102546059e+00 0.0000000000000000e+00  1.3551420975849474e+01 1.7385519996854892e+00 0.0000000000000000e+00  -2.3605446204030535e+01 1.7875571163125400e+01 0.0000000000000000e+00  -1.5055191456833247e+01 5.8473006096896540e+00 0.0000000000000000e+00  -1.6966114490935681e+01 5.3044311003418647e+00 0.0000000000000000e+00  4.6333275499917450e+00 -4.8838064560124410e+00 0.0000000000000000e+00  7.8947252408677562e+00 -6.4310551442257511e+00 0.0000000000000000e+00  5.8045620935582605e+00 -4.6514751713720699e+00 0.0000000000000000e+00  8.1103520724382108e+00 -5.8666377891440584e+00 0.0000000000000000e+00  -7.6564590634409413e+00 4.3735971407343854e+01 0.0000000000000000e+00  -6.0854578464286337e+00 4.2249960127493118e+01 0.0000000000000000e+00  -6.6740647654929202e+00 3.6705356282364029e+01 0.0000000000000000e+00  -2.9333266193048222e+00 3.4799175661677829e+01 0.0000000000000000e+00  6.1624300117799713e+00 -3.8247407778423068e+00 0.0000000000000000e+00  8.2513023819669868e+00 -6.9268358494131039e+00 0.0000000000000000e+00  4.0153603152832638e+00 -4.3907680987837256e+00 0.0000000000000000e+00  -1.6756966185384712e+01 -1.8261759641047368e+00 0.0000000000000000e+00  -2.3529615522444324e+01 1.0611785593586764e+00 0.0000000000000000e+00  -1.6847567313003548e+01 -7.6757260283238136e+00 0.0000000000000000e+00  -1.6425508760855386e+01 -1.6922227053205994e+01 0.0000000000000000e+00  -1.2275509555945067e+01 3.8243912361598102e+00 0.0000000000000000e+00  -1.7496094478406484e+01 -1.3170446169879879e+01 0.0000000000000000e+00  1.1047642332685959e+01 2.3124411555573133e+01 0.0000000000000000e+00  1.3969001030873683e+01 1.6925876825917722e+01 0.0000000000000000e+00  2.9642089845907189e+00 2.9597764345270036e+01 0.0000000000000000e+00  9.8557537331283207e+00 3.4739277736275094e+00 0.0000000000000000e+00  6.8574834442564807e+00 7.4422223864521797e+00 0.0000000000000000e+00  6.1780498256278316e+00 1.1695117161776343e+00 0.0000000000000000e+00  -3.2693708630170079e+01 3.6270751005125803e+01 0.0000000000000000e+00  -3.3597084979172863e+01 3.9131183863167756e+01 0.0000000000000000e+00  -3.2004263772132248e+01 3.7458951296051836e+01 0.0000000000000000e+00  -3.2075082708146248e+01 3.8302284701992050e+01 0.0000000000000000e+00  -9.3624908326871551e-16 1.0331024367103068e-15 0.0000000000000000e+00  4.0217280911315722e-16 1.6086912364526289e-15 0.0000000000000000e+00  -8.5464774993438697e-01 1.7864728481723461e+01 0.0000000000000000e+00  2.4796367653619892e+01 -1.3954407699079196e+01 0.0000000000000000e+00  3.6180743186975526e+01 -2.2597055135811054e+01 0.0000000000000000e+00  2.3433702207586407e+01 -2.7984277123362041e+01 0.0000000000000000e+00  1.0127371666198693e+01 7.5300016014418709e+00 0.0000000000000000e+00  5.3130430077504895e+00 3.9507421061627839e+00 0.0000000000000000e+00  1.4741615011373565e+01 5.5931502177413757e+00 0.0000000000000000e+00  9.2177783336049526e+00 7.4251403914018743e+00 0.0000000000000000e+00  -5.9479075144507624e-16 -4.4609306358380708e-16 0.0000000000000000e+00  2.9924739879583780e-16 1.1969895951833512e-15 0.0000000000000000e+00  -7.3427866560681716e+00 -2.8178247037219095e+00 0.0000000000000000e+00  -4.5820655037880570e-01 3.3314107572859797e+00 0.0000000000000000e+00  -1.4086453972292643e+00 3.6460442782368787e+00 0.0000000000000000e+00  -2.2909898587252293e+00 4.5260142534654610e+00 0.0000000000000000e+00  -2.1342634102916289e+00 4.1579965816937019e+00 0.0000000000000000e+00  1.3003677371533872e+01 1.0486838038695495e+01 0.0000000000000000e+00  9.1498079282455560e+00 3.4666570375698900e+00 0.0000000000000000e+00  9.8994616347810425e+00 7.2729065110310378e+00 0.0000000000000000e+00  1.8800538066888144e+01 1.0283984003192090e+01 0.0000000000000000e+00  1.4168960997853429e+01 1.3450319678590869e+01 0.0000000000000000e+00  -2.2837620325008253e+01 3.2377016371599460e+01 0.0000000000000000e+00  -1.7473012444977687e+01 2.9598955109715472e+01 0.0000000000000000e+00  -1.9997417597436577e+01 3.2839321679342120e+01 0.0000000000000000e+00  2.0924654027492682e+01 1.8822219391006296e+01 0.0000000000000000e+00  1.6888506370158465e+00 1.6938490564129602e+01 0.0000000000000000e+00  2.9641430646814264e+01 2.1625076907084534e+01 0.0000000000000000e+00  -2.0457724219298580e+01 5.2568938343166764e+01 0.0000000000000000e+00  -2.3283619433551848e+01 5.7217494490766619e+01 0.0000000000000000e+00  -2.0639075820256330e+01 5.5337309527003292e+01 0.0000000000000000e+00  -2.8025733023764094e+01 3.6025034732349525e+01 0.0000000000000000e+00  -2.8075345322528886e+01 3.4050043816971019e+01 0.0000000000000000e+00  -2.7627959139042240e+01 3.6297910310849495e+01 0.0000000000000000e+00  -7.8267307742916699e-16 1.6729471491173284e-15 0.0000000000000000e+00  2.6552682007825316e-16 -5.3105364015650631e-16 0.0000000000000000e+00  1.9857441450035676e+00 6.0669531225591973e+00 0.0000000000000000e+00  9.6955108432553914e+00 9.5383679083260340e+00 0.0000000000000000e+00  1.0879607035093304e+01 9.9120328126728179e+00 0.0000000000000000e+00  1.2471776203586293e+01 9.0265167736424488e+00 0.0000000000000000e+00  1.2364703057719508e+01 9.5133269665058950e+00 0.0000000000000000e+00  2.8662437793153517e-01 1.1204769787427404e+00 0.0000000000000000e+00  8.0581126961209351e-02 7.2380733793814966e-01 0.0000000000000000e+00  -2.9532675485356291e-01 1.7499412962066212e+00 0.0000000000000000e+00  -1.1635223574138500e+01 -1.8980538309255628e+00 0.0000000000000000e+00  -1.9730583919574574e+01 5.5058468832065451e+01 0.0000000000000000e+00  -1.5895654118166972e+01 4.8471119501918707e+01 0.0000000000000000e+00  -1.2021623707299861e+01 4.7208951257927964e+01 0.0000000000000000e+00  2.5289715667787083e+00 -1.9169366102298151e+00 0.0000000000000000e+00  -2.2410686830615042e+01 -4.4932749172374882e+00 0.0000000000000000e+00  -2.4108966986256963e+01 -2.2776699708452051e+00 0.0000000000000000e+00  -2.2887770763267508e+01 -4.2944782220986850e+00 0.0000000000000000e+00  1.7623247777766647e+01 1.7071474402326473e+01 0.0000000000000000e+00  2.8493442524319757e+01 2.1747010248153405e+01 0.0000000000000000e+00  2.5932086945949244e+01 2.6138925532041625e+01 0.0000000000000000e+00  -2.6016197412257089e+01 1.7328903566763753e+01 0.0000000000000000e+00  -2.5997840443191450e+01 1.9013102414150719e+01 0.0000000000000000e+00  4.6584001072250887e+00 -6.9844210064382017e-01 0.0000000000000000e+00  3.1638028022212188e+00 7.7329136025292844e-01 0.0000000000000000e+00  3.6161242552892734e+00 -1.2705873807549568e+00 0.0000000000000000e+00  -8.0233276225950245e+00 -1.3223440076433512e+01 0.0000000000000000e+00  -1.3630922574682542e+01 -8.4662933555388538e+00 0.0000000000000000e+00  -1.1589127529313137e+01 -1.1428426637081257e+01 0.0000000000000000e+00  -2.0794522389283539e+01 8.5694757216744417e+00 0.0000000000000000e+00  3.4094017521437743e-16 -6.6114972830936769e-16 0.0000000000000000e+00  1.2337421597248171e-15 -1.8506132395872259e-15 0.0000000000000000e+00  -6.9640746755883072e+00 7.0460079934301296e+00 0.0000000000000000e+00  1.1068326273607658e+01 1.2884976671652199e+01 0.0000000000000000e+00  1.0656444569964776e+01 1.7432946228658970e+01 0.0000000000000000e+00  6.6554619647432478e+00 1.9560814115323709e+01 0.0000000000000000e+00  2.5335437647809576e+00 2.9363774444464088e+01 0.0000000000000000e+00  -3.6464518567882789e+00 2.9109270498756295e+01 0.0000000000000000e+00  -2.3277024465345775e+01 5.3517065165296437e+01 0.0000000000000000e+00  -2.5651776442894370e+01 5.6538553514708617e+01 0.0000000000000000e+00  -2.5925865999189071e+01 5.4121744490067165e+01 0.0000000000000000e+00  -3.4886912461049366e-16 5.2523651369805298e-15 0.0000000000000000e+00  1.1079711227621073e-15 0.0000000000000000e+00 0.0000000000000000e+00  -1.1049321885723636e+01 -3.6548609937932866e+01 0.0000000000000000e+00  -1.9952228808607202e+01 -4.1815786695052326e+00 0.0000000000000000e+00  -1.9090498908211178e+01 -7.6974412378392154e+00 0.0000000000000000e+00  -2.0902011359452324e+01 -1.5267184372744658e+00 0.0000000000000000e+00  5.3810500848220455e+00 2.1042307233451578e+00 0.0000000000000000e+00  7.0045054872929589e+00 3.2911137728974982e+00 0.0000000000000000e+00  8.8557750831844455e+00 3.3391467037585105e+00 0.0000000000000000e+00  1.6152588280352589e+01 1.0187925334333368e+01 0.0000000000000000e+00  1.0309030757412916e+01 6.2571260491864553e+00 0.0000000000000000e+00  1.6354680302620931e+01 1.4946193762078348e+01 0.0000000000000000e+00  2.7990022916204644e+00 1.9592830219054047e+01 0.0000000000000000e+00  8.7150230648550373e+00 8.9307422196737818e+00 0.0000000000000000e+00  3.6333192039398625e+00 2.0452028904553892e+01 0.0000000000000000e+00  3.6402076412823789e+01 -1.1972691860342970e+01 0.0000000000000000e+00  -3.4943856209480906e+01 2.7609109573470430e+01 0.0000000000000000e+00  -3.4944564053355855e+01 1.0404594253488666e+01 0.0000000000000000e+00  -3.6223076181672887e+01 2.9888605755584411e+01 0.0000000000000000e+00  2.6153240046609532e-15 1.9614930034957149e-15 0.0000000000000000e+00  1.4134674426488475e-15 7.0673372132442377e-16 0.0000000000000000e+00  2.4202072884160522e+01 -6.1298714302279702e+00 0.0000000000000000e+00  1.1273616398678598e+01 4.2299600230594825e+00 0.0000000000000000e+00  -1.6781647886509676e+00 1.3045281373456934e+01 0.0000000000000000e+00  6.0487627720438182e+00 5.6434333609419625e+00 0.0000000000000000e+00  1.0701039138345271e+01 3.4586132705613801e+00 0.0000000000000000e+00  1.6318318860447715e+01 9.0486903573746957e+00 0.0000000000000000e+00  -3.0215320562943582e+01 3.7649590503786357e+01 0.0000000000000000e+00  -2.5393470433839806e+01 3.2653161136245572e+01 0.0000000000000000e+00  -3.0937980792748522e+01 3.7032417063282658e+01 0.0000000000000000e+00  -2.0353073882117783e+01 2.0568829330161570e+01 0.0000000000000000e+00  -1.9759207979496999e+01 2.1339009983687536e+01 0.0000000000000000e+00  -1.2032173473153884e+01 1.5875020359450486e+01 0.0000000000000000e+00  -1.0805649955536014e+01 -2.3235187382897986e+00 0.0000000000000000e+00  -1.0072530536508998e+01 -3.1029290823594886e+00 0.0000000000000000e+00  -4.3520827803373399e+00 -3.4765696764107981e+00 0.0000000000000000e+00  -2.0959966585410918e+01 1.8398623927056867e+01 0.0000000000000000e+00  -2.5041075198904384e+01 2.8800854502041833e+01 0.0000000000000000e+00  -2.2225606997422595e+01 2.3723123343665801e+01 0.0000000000000000e+00  1.5941007378118754e+00 -9.0712800121760750e+00 0.0000000000000000e+00  8.1098968101051501e+00 1.3129695283882151e+01 0.0000000000000000e+00  2.7207153112830170e-15 -1.4409464450022833e-15 0.0000000000000000e+00  1.6777355872389629e-15 -2.3488298221345483e-15 0.0000000000000000e+00  1.4770788933501507e+01 1.0687651231967576e+01 0.0000000000000000e+00  1.1090300464903198e+01 4.1104899524050138e+00 0.0000000000000000e+00  1.9012332337164448e+01 4.0957220883802146e+00 0.0000000000000000e+00  1.6352452707931963e+01 1.1857482785710461e+01 0.0000000000000000e+00  1.1174929664185347e+01 1.1265558361925631e+01 0.0000000000000000e+00  -5.3657432178862151e-17 -6.8155232985395964e-16 0.0000000000000000e+00  -2.2938984476837732e+00 2.1975918116789726e+00 0.0000000000000000e+00  -5.9408460303225397e-01 3.5899630292144962e+00 0.0000000000000000e+00  -2.7313001654121354e+01 5.5594215494099565e+01 0.0000000000000000e+00  6.6192726789095744e+00 1.4211760720769128e+01 0.0000000000000000e+00  5.1405001015830809e+00 9.6977906888060499e+00 0.0000000000000000e+00  4.2319863272524545e+00 1.2480819693391085e+01 0.0000000000000000e+00  0.0000000000000000e+00 2.4494871096254567e-15 0.0000000000000000e+00  0.0000000000000000e+00 -1.2458567617704487e-15 0.0000000000000000e+00  4.0128147034522756e+00 1.2288082824754715e+01 0.0000000000000000e+00  -3.6144385221967568e+01 1.3021489235791179e+01 0.0000000000000000e+00  9.8861045019682851e-16 -3.6300255424315957e-16 0.0000000000000000e+00  -1.7474458007470033e-15 -2.1843072509337540e-15 0.0000000000000000e+00  -2.1725714082541348e+01 8.0440801136272508e+00 0.0000000000000000e+00  5.5247957849223299e+00 6.9138853096670205e+00 0.0000000000000000e+00  -2.0665256151946561e+01 8.3747577323220224e+00 0.0000000000000000e+00  -1.5493862109463002e+01 1.6981213112676439e+01 0.0000000000000000e+00  -2.3753869732961828e+01 2.6014127014622133e+01 0.0000000000000000e+00  -1.1554272205812286e-15 0.0000000000000000e+00 0.0000000000000000e+00  -5.3079591040516083e-15 3.4382333610716448e-16 0.0000000000000000e+00  -1.3141531936603712e+01 4.1279383418942583e-01 0.0000000000000000e+00  -1.7009208111995633e+01 6.8509614863720941e+01 0.0000000000000000e+00  -2.0243858416547376e+01 6.7916253726783964e+01 0.0000000000000000e+00  -2.1158346441419745e+01 6.4697841398870551e+01 0.0000000000000000e+00  9.7085884256161101e+00 1.9629163046920780e+01 0.0000000000000000e+00  1.0857360757270762e+01 1.8067485945654216e+01 0.0000000000000000e+00  5.7395471455969300e+00 1.9340882484558961e+01 0.0000000000000000e+00  -1.8835591781819765e+01 1.2113811769520645e+01 0.0000000000000000e+00  -2.0086308733383557e+01 2.9754942524164441e+01 0.0000000000000000e+00  -1.6657203632014326e+01 1.5525183247846210e+01 0.0000000000000000e+00  -1.8989837807331636e+01 9.3772636660017952e+00 0.0000000000000000e+00  -2.7375845993296526e+01 4.2943278362792498e+01 0.0000000000000000e+00  -2.6302154813312143e+01 3.8428449457933155e+01 0.0000000000000000e+00  -2.6479369772039934e+01 4.2190268497821187e+01 0.0000000000000000e+00  -1.2307899655595154e+01 -1.4414453698597525e+00 0.0000000000000000e+00  1.9411283474137602e+00 4.0890415296797300e+01 0.0000000000000000e+00  1.2090240622142582e+01 3.3394334687623761e+01 0.0000000000000000e+00  3.8271292820133214e+00 3.8145129553583828e+01 0.0000000000000000e+00  1.6302903908448467e+01 -1.0946668842675804e+01 0.0000000000000000e+00  5.9243235479890579e+00 -1.5015805366974803e+01 0.0000000000000000e+00  1.9677670139008196e+01 -8.9954737031096794e+00 0.0000000000000000e+00  9.7917954221327790e+00 -1.0472496583883354e+01 0.0000000000000000e+00  -1.3842754337240212e-15 1.0382065752930159e-15 0.0000000000000000e+00  -3.3696764492966793e-16 -8.0680613254257312e-17 0.0000000000000000e+00  -1.9764177329873569e+01 -3.2681317808718462e+00 0.0000000000000000e+00  8.6927213381096636e-16 -2.4448278763433426e-16 0.0000000000000000e+00  -1.8852651128212625e-15 3.0936113297786699e-16 0.0000000000000000e+00  -6.5589595637281102e+00 5.5681437049535665e-01 0.0000000000000000e+00  1.9729239655808313e+00 1.3854364197437905e+01 0.0000000000000000e+00  8.3557482766350233e-01 1.8271659769501305e+01 0.0000000000000000e+00  2.4532228511004224e+00 1.3014641329286144e+01 0.0000000000000000e+00  -1.4307358255184710e+01 6.5884434236464102e+01 0.0000000000000000e+00  -1.0622147928977114e+01 7.1220852834457119e+01 0.0000000000000000e+00  -2.6899685713643368e+01 2.9983538415671692e+01 0.0000000000000000e+00  -2.6962922764500455e+01 2.6285445641571815e+01 0.0000000000000000e+00  -2.6712440945930972e+01 2.6925776949933937e+01 0.0000000000000000e+00  9.3252215947576023e+00 7.0049553259838939e+00 0.0000000000000000e+00  7.0741273842526278e+00 5.1254610887521315e+00 0.0000000000000000e+00  7.8582085546021192e+00 4.1352580103957504e+00 0.0000000000000000e+00  -2.7363535492307552e+01 3.1985426619971452e+01 0.0000000000000000e+00  -2.7681430025145509e+01 3.2958878516560425e+01 0.0000000000000000e+00  -2.8215329937099540e+01 3.4582878594549520e+01 0.0000000000000000e+00  -9.4831851857742198e+00 1.6360360015470036e+01 0.0000000000000000e+00  1.5685462597977105e+01 3.1969140792950864e+01 0.0000000000000000e+00  1.6064677953745704e+01 2.6357240771075602e+01 0.0000000000000000e+00  4.9306586510044452e+00 2.8510438105730845e+01 0.0000000000000000e+00  0.0000000000000000e+00 0.0000000000000000e+00 0.0000000000000000e+00  -9.8020743513217115e-16 -6.2674234777967868e-16 0.0000000000000000e+00  -1.8183734240457481e+00 -7.4689581642622533e+00 0.0000000000000000e+00  -1.2333846606737792e+01 -3.9046202531472280e+00 0.0000000000000000e+00  -7.8103051535998693e+00 -5.0497219360239161e+00 0.0000000000000000e+00  -1.3523163089285651e+01 -7.1828451166071083e+00 0.0000000000000000e+00  8.2763303698116530e+00 1.0884867001778552e+01 0.0000000000000000e+00  -2.7123687419807407e+01 2.9520381006326179e+01 0.0000000000000000e+00  4.4228432263812936e+00 -8.9606304099256362e-01 0.0000000000000000e+00  7.9178750816877717e+00 -4.0137302690389856e+00 0.0000000000000000e+00  -2.5227507091938335e+01 3.3863224170229536e+01 0.0000000000000000e+00  5.9601683162273096e+00 -1.3535155196160229e+00 0.0000000000000000e+00  4.1684460139636505e-16 -8.3368920279273010e-16 0.0000000000000000e+00  -1.2508421549240501e-15 -1.7578087267079814e-15 0.0000000000000000e+00  5.5145547342374002e+00 9.5128816642805631e+00 0.0000000000000000e+00  1.0629286216645122e+01 9.9642224989625774e+00 0.0000000000000000e+00  1.0773882138131604e+01 8.7636309561619221e+00 0.0000000000000000e+00  9.7660647345089409e+00 1.0898240405340408e+01 0.0000000000000000e+00  -2.5898480865079359e+00 -2.1148435905205435e+01 0.0000000000000000e+00  4.4407233012585987e+00 -1.5051605624079217e+01 0.0000000000000000e+00  -8.9998359058401860e+00 -3.2092864786544638e+01 0.0000000000000000e+00  6.0099276729054929e-01 1.7773728305544090e+01 0.0000000000000000e+00  -2.8088974591106051e+00 2.5656092722720114e+01 0.0000000000000000e+00  7.7567747864979453e-01 1.9902984200400070e+01 0.0000000000000000e+00  3.8291801557426717e+00 3.4518141344905438e+01 0.0000000000000000e+00  -5.6014873633182791e+00 4.3734966680307629e+01 0.0000000000000000e+00  0.0000000000000000e+00 5.0509795364324655e-16 0.0000000000000000e+00  1.1007652175485482e+01 7.0252075804257226e+00 0.0000000000000000e+0