<?xml version="1.0"?>
<VTKFile type="UnstructuredGrid"  version="0.1"  >
<UnstructuredGrid>
<Piece  NumberOfPoints="2756" NumberOfCells="4911">
<Points>
<DataArray  type="Float64"  NumberOfComponents="3"  format="ascii">381132.8481945096 1523002.969494474 0  381338.0571422555 1522854.868640303 0  381100.8270039689 1522807.626636636 0  381006.226428371 1513043.225640772 0  380805.0638099784 1513125.003063222 0  380848.0578260962 1512896.434213388 0  379360.6728964231 1517923.830864767 0  379208.1260841243 1518129.753240262 0  379406.145891918 1518182.86712025 0  381115.3150174634 1518189.520084918 0  381336.0106060008 1518271.792296744 0  381116.6994630125 1518392.532522163 0  378185.2 1520462 0  378245.2 1520517.7 0  378127.2477709518 1520622.483792013 0  380683.3697071038 1521901.097622266 0  380568.3240360337 1522066.739715079 0  380802.1955744097 1522111.880122961 0  380269.9467976058 1522762.274681908 0  380243.7012214905 1523012.274697849 0  380414.729996858 1522851.434535827 0  383408.6180978718 1522516.361322971 0  383546.6924531885 1522697.820042272 0  383360.3419445077 1522759.432082263 0  379430.8 1516696.3 0  379297.7 1516577.5 0  379476.3712921838 1516509.416159902 0  381732.0748088956 1516086.011831138 0  381527.7149676714 1515932.486699072 0  381745.1062556971 1515844.912061844 0  375743.2536647741 1518327.633027924 0  375647.805328818 1518108.824715752 0  375857.0807929152 1518195.089294348 0  383955.2 1518742.3 0  383924.3 1518903.5 0  383835.7623226807 1518704.926957244 0  381953.2 1515399.3 0  382089.2 1515417.3 0  381984.4764698262 1515578.761860147 0  381136.6787989419 1517622.143430421 0  381065.8205527377 1517414.951465063 0  380970.3891828283 1517584.03020747 0  381078.5898254366 1523209.767395736 0  380909.1370683986 1523102.466608905 0  382188.253468525 1514472.476234976 0  381987.3517762316 1514605.028148611 0  382004.804059681 1514371.588711992 0  381557.2995085699 1514966.852877108 0  381415.4708147333 1515114.465640779 0  381342.717441313 1514878.810690856 0  379891.630506651 1515484.920384602 0  379914.9303519402 1515305.147270819 0  379700.3410664618 1515395.594771678 0  380904.1988638599 1522898.992304761 0  380398.4695234063 1518432.223557568 0  380627.2779262392 1518485.828690855 0  380531.7473784017 1518623.753206566 0  384034.6608035758 1522640.329183416 0  384214.8699485139 1522702.311654604 0  384113.5895920917 1522476.602094412 0  377843.6661891531 1515638.579773938 0  377873.9156747229 1515901.512738381 0  377688.2461373045 1515759.026020743 0  378660.4566965842 1515076.744245254 0  378428.1844890781 1515119.594056058 0  378470.3738697512 1514942.14016793 0  380741.8649044938 1516366.031673378 0  380994.9976600878 1516260.217403548 0  380939.5838307368 1516443.221560156 0  383411.2 1520442.7 0  383224 1520373.9 0  383372.1978776808 1520274.104664547 0  381260.6240208659 1517488.906032594 0  381471.5793415913 1517599.352681893 0  381266.7101013901 1517725.18491111 0  378746.8182314756 1520688.389045444 0  378675.9177977621 1520900.239550582 0  378535.5059380529 1520798.442559511 0  378394.9455750583 1514244.599080242 0  378449.8946502131 1514031.053369917 0  378574.4390201942 1514199.085636147 0  379030.3703672636 1514930.026223515 0  378809.8126729259 1514916.799065131 0  378908.0173984388 1515124.002530093 0  381924.1804336655 1519848.506730964 0  382070.1291345952 1519640.332260843 0  381815.3462283251 1519690.483518803 0  381877.8583184913 1519477.721818394 0  380843.075611213 1516182.701454373 0  377537.2555830219 1515567.508644517 0  377315.2897831545 1515513.727730773 0  377495.3987846794 1515362.099266658 0  380990.6175768265 1520808.791431453 0  381180.5593875027 1520875.545620744 0  380965.5438001876 1520960.854387447 0  379175.4859801811 1517958.685043537 0  381657.2 1515253.7 0  381801.2 1515341.3 0  381681.0249801798 1515445.19385653 0  382837.5 1514636.3 0  382719.2 1514678.3 0  382651.585190931 1514541.23123663 0  381365.3397622496 1521302.110841844 0  381173.8165702133 1521391.166751647 0  381324.7861896669 1521494.03732944 0  377487.2 1516387.7 0  377597.2 1516475.7 0  377420.9763942952 1516583.229505466 0  382769.8434317347 1523916.275711101 0  382523.0131554338 1524000.179057586 0  382588.8017273311 1523766.010037901 0  380415.6802735555 1515277.103834966 0  380534.2629263023 1515373.750629143 0  380615.4445543762 1515176.625170087 0  379607.7 1513166.8 0  379684.5 1513031.7 0  379773.8484837147 1513227.927016554 0  380468.4147114399 1515087.580642533 0  381279.6714154714 1522670.588039799 0  382791.986869641 1513605.195382937 0  382945.5296286712 1513465.975928865 0  383005.6847487807 1513666.355228624 0  380587.208374173 1518346.936303897 0  381066.6826994419 1516028.07274255 0  383688.9098871482 1523874.991036592 0  383841.2776636996 1523896.97106414 0  383816.2971629929 1523689.575473786 0  380879.1844274054 1518456.326428152 0  380756.810245833 1518638.187272127 0  379234.4396188496 1524237.41355402 0  379094.6394206512 1524405.577297573 0  379003.9450860478 1524199.437734519 0  380132.334319414 1524751.906987656 0  380330.8395303916 1524711.888812631 0  380196.6483640434 1524537.094617073 0  382921.2 1512811.3 0  383111.2 1512801.7 0  383024.8029546599 1512888.005369809 0  381350.8997291102 1516740.004564695 0  381179.5549085469 1516884.485910123 0  381161.2238962245 1516659.691216734 0  377335.250979741 1516978.525097729 0  377507.1146876515 1516792.586730807 0  377335.2188897606 1516760.55035147 0  380441.7462455225 1523007.730086568 0  381606.3149008715 1515670.833480006 0  381143.7310861478 1521074.102048449 0  383647.2 1524072.7 0  383775.2 1524057.7 0  380202.1422865971 1519475.02359036 0  379975.901196 1519378.933275257 0  379983.0988174871 1519527.22466434 0  382970.0408729046 1522215.911350016 0  382761.3300385343 1522296.069380894 0  382793.7900572721 1522101.053478742 0  380828.7 1525572.8 0  380839.7 1525444 0  380656.6777187333 1525493.586054695 0  380889.8151343891 1516008.282751372 0  380078.3874647535 1518228.009651038 0  380302.7133713772 1518197.568723889 0  380151.6023988136 1518042.880161158 0  381216.5866019003 1521229.173312577 0  382856.185294751 1522965.63341434 0  382757.1055942607 1523184.966693557 0  382642.892790422 1522981.930935778 0  377530.4496674888 1517023.45370742 0  375859.2807621637 1518617.340275958 0  375723.9272779689 1518798.871377308 0  375883.326900385 1518835.65611793 0  380757.9597679956 1518332.596959953 0  382080.929067928 1518165.826094281 0  382149.7677297026 1517950.257456156 0  381951.9477203974 1518011.871528924 0  380272.3444541534 1515787.205817882 0  380320.8816570968 1516011.511395629 0  380113.2709761026 1515858.518344478 0  378032.6447889569 1515753.255978216 0  379421.8869711594 1523948.610492724 0  379640.0462347057 1523860.430685563 0  379431.1707879588 1523752.155926062 0  378025.3435621529 1520857.219650026 0  378198.9151342391 1520835.078132307 0  380623.1782962393 1519503.677629183 0  380422.1490956132 1519606.763638367 0  380646.3335252591 1519722.271771401 0  380476.8692891017 1519799.986456953 0  381698.5801553232 1522110.992607313 0  381823.3754331729 1521965.912219836 0  381905.209373827 1522161.852322485 0  383231.4790099824 1522608.653918072 0  380569.5269372251 1521699.580039684 0  380456.6212457299 1521792.468348222 0  380441.0497392764 1521945.386802009 0  378097.9402495216 1519438.836649175 0  377897.2808868021 1519438.163458873 0  378015.5925372721 1519657.103233225 0  379240.4482384928 1518348.628731092 0  379101.5107170234 1518515.956095773 0  379309.2960311403 1518557.423754058 0  376602.0415677593 1517331.704880342 0  376405.646887949 1517266.906971252 0  376604.3736852485 1517110.622067226 0  376389.1531143626 1517062.316879417 0  382659.3949508357 1514324.692229536 0  382817.9934846218 1514438.349332366 0  382846.6524026072 1514193.023556729 0  381870.7171352024 1523061.569260952 0  381841.2368633775 1522836.020800953 0  382014.663836404 1522892.486055208 0  379955.7020923612 1522736.824460503 0  379723.6102638948 1522728.726967993 0  379881.5405186305 1522875.860100716 0  379992.4072553897 1516391.757601717 0  380074.8249143763 1516599.73488394 0  380210.8593172977 1516495.348514417 0  382939.0778999142 1514326.569301511 0  380425.5508180095 1519373.10188626 0  381604.9372215627 1524256.575821479 0  381400.4593655768 1524340.880286145 0  381470.2264694679 1524125.801696274 0  378054.5 1519159.7 0  378139.1 1519099.1 0  378184.7946302334 1519271.035008067 0  380194.3431958627 1519285.547275192 0  379385.7494196121 1515126.292007208 0  379471.3682234275 1514927.587698711 0  379249.7735345896 1514933.344183152 0  376955.2 1518980.7 0  376798.8 1519104.7 0  376775.4982364908 1518922.228126186 0  382527.9866427068 1522799.179297257 0  382736.9216083986 1522765.947592632 0  384655.1459267635 1523229.989541015 0  384442.9065779765 1523338.144486324 0  384637.4791078825 1523448.403934124 0  384448.2868301938 1523561.778401528 0  379829.8676797987 1522614.416467188 0  381140.1294017129 1520342.738893406 0  381403.9598020584 1520426.195448618 0  381314.7388831928 1520238.0494242 0  380196.4939012315 1516326.831617291 0  380011.0690510017 1516186.042730292 0  380419.2981205012 1523206.948412003 0  380212.0110392965 1523267.61678974 0  377703.5964462604 1515542.50936791 0  381247.2652474671 1520521.406041619 0  379289.9202508042 1515323.778417355 0  379165.6813773445 1515106.379857164 0  379069.0270186929 1515290.955210169 0  383404.3 1520120.8 0  383543.5 1520221.7 0  382367.9054404311 1523853.294138599 0  382287.2363976986 1524064.774115442 0  381314 1524619.9 0  381416 1524578.9 0  381285.8633749933 1524471.549762273 0  381299.7944129073 1523327.053787009 0  381471.9523574505 1523171.77460986 0  381248.4760904987 1523164.739784237 0  379713.9783636824 1514288.034360801 0  379489.6819553655 1514364.196488065 0  379568.2149402015 1514129.067824828 0  378262.3973400125 1514936.953572406 0  378201.9540953715 1515172.018072528 0  382467.8493660801 1514046.774039768 0  382656.94
[...]
<PointData  Vectors="f_221"> 
<DataArray  type="Float64"  Name="f_221"  NumberOfComponents="3" format="ascii">3.1070366395236640e+01 -1.9979960279763587e+00 0.0000000000000000e+00  2.7953592602203940e+01 1.2884336549101378e+00 0.0000000000000000e+00  2.6596884798742046e+01 5.9144943772359115e-01 0.0000000000000000e+00  -7.2516938439661685e+00 1.4601129926135904e+01 0.0000000000000000e+00  -3.2483139549459712e+00 1.6047285081016767e+01 0.0000000000000000e+00  -6.2442904113733428e+00 1.4462391592436722e+01 0.0000000000000000e+00  1.9434864262224696e+01 1.1178221755205563e+01 0.0000000000000000e+00  1.9512819856248228e+01 8.2731629402983451e+00 0.0000000000000000e+00  1.7502719135057852e+01 1.2765497532734130e+01 0.0000000000000000e+00  -1.0602820778772310e+01 -5.9582390165371080e-01 0.0000000000000000e+00  -2.0092703604918473e+01 1.6293778821872595e+00 0.0000000000000000e+00  -2.1943262931800948e+01 2.4061248739699597e+00 0.0000000000000000e+00  0.0000000000000000e+00 0.0000000000000000e+00 0.0000000000000000e+00  -2.3816931023805708e-17 -1.5650615127467178e-15 0.0000000000000000e+00  7.6745868243753890e+00 1.0810058824864024e+01 0.0000000000000000e+00  3.0392777917609135e+00 5.8947697813001776e+00 0.0000000000000000e+00  5.6484358282485898e+00 6.8804176581015950e+00 0.0000000000000000e+00  6.4796778400239079e+00 7.8554768798945993e+00 0.0000000000000000e+00  2.8435887355571314e+01 -1.4340695775219819e+01 0.0000000000000000e+00  4.0162053879092227e+01 -1.6118925980937750e+01 0.0000000000000000e+00  3.0866569670910252e+01 -1.2351236629973871e+01 0.0000000000000000e+00  2.7271763948467395e+01 1.1699918190752416e+00 0.0000000000000000e+00  2.8957016126681072e+01 -3.7335621910739419e-01 0.0000000000000000e+00  2.8591270253657704e+01 5.0630442315769697e-01 0.0000000000000000e+00  1.0505874773976775e-15 5.9095545603619362e-16 0.0000000000000000e+00  4.9655178195923026e-16 1.9396553982782434e-16 0.0000000000000000e+00  2.7645586190123099e+00 3.7655203437639416e-02 0.0000000000000000e+00  -2.0174052052489987e+01 1.3312476167668958e+01 0.0000000000000000e+00  -4.6982247071559771e+00 4.0173802339953060e+00 0.0000000000000000e+00  -1.5993443627123536e+00 9.6448396635806830e+00 0.0000000000000000e+00  6.1847503526671987e+00 -6.5974349238474321e+00 0.0000000000000000e+00  7.6324202376637462e+00 -4.1860726005671438e+00 0.0000000000000000e+00  9.7342031094169030e+00 -7.0028440956771796e+00 0.0000000000000000e+00  -3.6189667411225255e-16 7.2379334822450510e-16 0.0000000000000000e+00  -3.8959219401236048e-16 9.2347180935046757e-16 0.0000000000000000e+00  -6.1228511812463005e+00 6.3675826527271102e+00 0.0000000000000000e+00  1.0355102882946384e-15 5.1775514414731920e-16 0.0000000000000000e+00  -2.1292120565000957e-15 -5.4881678536105789e-16 0.0000000000000000e+00  -5.7698648400486663e+00 5.8489285955006300e+00 0.0000000000000000e+00  -2.6553340982086507e+01 -4.4729470939064129e+00 0.0000000000000000e+00  -1.5525856726970511e+01 4.9721143035304651e+00 0.0000000000000000e+00  -1.6698424062252030e+01 4.9908523286737019e+00 0.0000000000000000e+00  3.4446471120355966e+01 -6.1771738677071122e+00 0.0000000000000000e+00  3.4142964678799281e+01 -6.2347049088189559e+00 0.0000000000000000e+00  -7.3587372447291770e+00 -6.4740596478855030e+00 0.0000000000000000e+00  -7.3306856157335636e+00 -7.1975391891563429e+00 0.0000000000000000e+00  -1.6885460196967006e+01 -1.2518249136032362e+00 0.0000000000000000e+00  -5.3919686327889096e+00 -4.9322939192591493e+00 0.0000000000000000e+00  -4.1135509673487638e+00 -1.5603264974084401e+00 0.0000000000000000e+00  -9.8901223498774424e+00 2.0791845152174801e-01 0.0000000000000000e+00  1.2563651020322414e+01 2.4012585869893510e+01 0.0000000000000000e+00  1.3466050787336970e+01 2.4966404902528808e+01 0.0000000000000000e+00  1.9584327987774763e+01 1.4562565568433028e+01 0.0000000000000000e+00  2.9484496852173454e+01 -3.2800131269839765e+00 0.0000000000000000e+00  2.5300709190995296e+00 2.4530965195018645e+01 0.0000000000000000e+00  5.8415586645851170e-01 2.1233838037598936e+01 0.0000000000000000e+00  4.4126160993959340e+00 2.2113222021867802e+01 0.0000000000000000e+00  3.2304678818802515e+01 -1.1168645473440966e+00 0.0000000000000000e+00  3.3858231936343287e+01 -1.4113434552919655e+00 0.0000000000000000e+00  3.1052477410990900e+01 -1.2736254092821369e+00 0.0000000000000000e+00  9.0439765754188723e+00 -5.0018128267006601e+00 0.0000000000000000e+00  4.0697034652050252e+00 -8.3186838347723171e+00 0.0000000000000000e+00  6.6660643391771224e+00 -6.4875004246316497e+00 0.0000000000000000e+00  2.4678952069062799e+01 -1.3240795325148671e+01 0.0000000000000000e+00  2.3103421873263741e+01 -8.7678024091376194e+00 0.0000000000000000e+00  2.1981496052370897e+01 -8.7276778330748712e+00 0.0000000000000000e+00  -3.1087202707000738e+00 3.1479136886285072e+01 0.0000000000000000e+00  -4.8303645141297560e+00 2.3144050591264232e+01 0.0000000000000000e+00  -6.2305333020670055e+00 2.4838139962249997e+01 0.0000000000000000e+00  0.0000000000000000e+00 7.0980162283043830e-17 0.0000000000000000e+00  3.0338533927404665e-15 -1.9700346706106921e-17 0.0000000000000000e+00  -9.9031606689287734e+00 -4.5638917756283620e-01 0.0000000000000000e+00  -2.2585478795438188e+01 -2.9327923135919658e+00 0.0000000000000000e+00  -2.8118615617311701e+01 1.6908521398274106e+00 0.0000000000000000e+00  -2.3609415716552590e+01 -1.1850022259746067e+01 0.0000000000000000e+00  1.0693459377723815e+00 1.4760448028681392e-01 0.0000000000000000e+00  9.5333853077450470e-01 -1.6963655726406066e-01 0.0000000000000000e+00  2.7086897789614546e+00 -2.1627736698672553e-01 0.0000000000000000e+00  5.7125363896316124e+00 -7.1677284714585321e-01 0.0000000000000000e+00  6.2565765401665470e+00 1.6772996617556870e+00 0.0000000000000000e+00  7.0906202539243051e+00 4.8009013637489523e-01 0.0000000000000000e+00  2.0335730902353585e+01 -5.3388487863228988e+00 0.0000000000000000e+00  1.9834064441804284e+01 -1.0014538183308343e+01 0.0000000000000000e+00  2.5775329584711251e+01 -1.1934683036472409e+01 0.0000000000000000e+00  -2.5421911594814752e+01 7.2490483645268853e+00 0.0000000000000000e+00  -3.3924273839512111e+01 3.7628421606917666e+00 0.0000000000000000e+00  -3.7857417943559305e+01 1.0561758304226061e+01 0.0000000000000000e+00  -3.6223440903737760e+01 2.6549709448410773e+01 0.0000000000000000e+00  -6.4642693720487110e-01 3.0234862032646099e+01 0.0000000000000000e+00  7.8494488352414011e+00 -4.7530352075534097e+00 0.0000000000000000e+00  5.5816261029416641e+00 -5.3981489526603239e+00 0.0000000000000000e+00  9.5856876502808301e+00 -6.3642916814075612e-01 0.0000000000000000e+00  2.0545481933871055e+00 1.0395595981488878e+01 0.0000000000000000e+00  3.5950300768203682e+00 1.0749557023170876e+01 0.0000000000000000e+00  2.2727716030977798e+00 8.7531693241619557e+00 0.0000000000000000e+00  2.1899619401913245e+01 9.1594720559365541e+00 0.0000000000000000e+00  -3.1502867268724408e-16 -1.5132214723133317e-16 0.0000000000000000e+00  7.0251517371782612e-16 -4.2150910423069568e-16 0.0000000000000000e+00  -4.7071720373487755e+00 2.2822913153458346e+00 0.0000000000000000e+00  2.6523284287346012e-16 -1.5160119642102422e-15 0.0000000000000000e+00  0.0000000000000000e+00 -3.1590281163399895e-16 0.0000000000000000e+00  -2.9814136923115986e+00 -5.1189220974177614e+00 0.0000000000000000e+00  4.0357359789845253e+00 6.2639573245054159e+00 0.0000000000000000e+00  3.9890474087882772e+00 5.9992927500786823e+00 0.0000000000000000e+00  4.3901652246096914e+00 5.7043876173294112e+00 0.0000000000000000e+00  -6.0968681930846366e-16 1.4158456059593504e-15 0.0000000000000000e+00  -1.9211925861814761e-16 1.0246360459634539e-15 0.0000000000000000e+00  2.7721257921652748e-01 7.8815420230447231e+00 0.0000000000000000e+00  2.1936722384960404e+01 -7.7756107604008817e-01 0.0000000000000000e+00  1.9218316671823466e+01 -2.1745713224456207e+00 0.0000000000000000e+00  2.5507273966815752e+01 -2.9592935035881793e+00 0.0000000000000000e+00  1.3470388435210270e+00 3.8468688211775515e+01 0.0000000000000000e+00  8.4090930559237842e-01 3.8034592495854469e+01 0.0000000000000000e+00  -3.3827649399911586e+00 3.6895235501008514e+01 0.0000000000000000e+00  5.4541062639408052e-16 -6.8176328299260060e-16 0.0000000000000000e+00  -1.0474718870421237e-15 2.6186797176053093e-16 0.0000000000000000e+00  6.5535031445165268e+00 1.1528946699301312e+00 0.0000000000000000e+00  -1.6153286081823373e+00 3.8717744393679787e+01 0.0000000000000000e+00  2.3050567518947616e+01 3.9325469006864378e+00 0.0000000000000000e+00  -3.7395548986025375e+01 9.2184920148709164e+00 0.0000000000000000e+00  -2.3657684620736685e+01 1.6676910326378582e+01 0.0000000000000000e+00  -3.8245399361358956e+01 1.4555362568654516e+01 0.0000000000000000e+00  -1.1356661671963388e+00 2.2362662016324190e+01 0.0000000000000000e+00  -4.5658419871043252e+00 2.2249313226507439e+01 0.0000000000000000e+00  1.5252247386071380e+01 8.9725483462508127e-01 0.0000000000000000e+00  1.5641154975987822e+01 -2.9768593252121223e-01 0.0000000000000000e+00  2.3501316939229710e+01 1.1935771768137096e+00 0.0000000000000000e+00  -1.1150851302928535e+01 1.0757084106330327e+01 0.0000000000000000e+00  1.4372683775157047e-01 1.8340227454897704e+01 0.0000000000000000e+00  4.9740210354476730e+01 6.4523482844144209e-01 0.0000000000000000e+00  4.0381966832006135e+01 2.0990933634468427e+00 0.0000000000000000e+00  5.4538294353045892e+01 1.0867984110538857e+00 0.0000000000000000e+00  1.6036560872880274e+00 -1.2815881293375059e+01 0.0000000000000000e+00  3.1564420254664927e+00 -1.7052376739981231e+01 0.0000000000000000e+00  8.9403115572564875e+00 -1.3797053957795997e+01 0.0000000000000000e+00  1.6669191048172324e-16 -3.3337836979231196e-16 0.0000000000000000e+00  4.5581101072978451e-16 1.2154960286127586e-15 0.0000000000000000e+00  -1.4991104985583266e+00 1.1818728831934573e+01 0.0000000000000000e+00  -1.1699434714590462e+01 7.6931048459222797e+00 0.0000000000000000e+00  -1.0060593537599408e+01 1.1825089068502857e+01 0.0000000000000000e+00  -1.1188359532092043e+01 1.5887464246000187e+01 0.0000000000000000e+00  1.1023971564842221e+01 1.3417298749322093e+01 0.0000000000000000e+00  4.3793342531773831e+00 9.6366068456393297e+00 0.0000000000000000e+00  6.4893961076588855e+00 1.1808743970110797e+01 0.0000000000000000e+00  3.6939099552638645e+01 -1.3181881306607950e+01 0.0000000000000000e+00  -6.4016332257538524e+00 3.2767605554491230e+00 0.0000000000000000e+00  3.9075219169555049e+00 8.4548883183555095e+00 0.0000000000000000e+00  -1.0083287882935063e-15 2.5208219707337657e-16 0.0000000000000000e+00  -3.8320992168314860e-15 -2.9525528133854150e-16 0.0000000000000000e+00  3.7662488931878100e+00 8.4511307766644563e+00 0.0000000000000000e+00  2.4386660749030331e+00 4.1894958235698923e+00 0.0000000000000000e+00  2.2656516890509102e+00 3.3085561664591245e+00 0.0000000000000000e+00  1.9084465653847452e+01 3.9654562133444164e+00 0.0000000000000000e+00  2.0851673935101836e+01 3.2681429419550510e+00 0.0000000000000000e+00  1.5086370817644422e+01 3.5719096440781488e+00 0.0000000000000000e+00  -2.6663646496388336e-16 -2.1330917197110669e-15 0.0000000000000000e+00  2.4754571565012357e-16 3.7397042111561761e-16 0.0000000000000000e+00  2.5018135135686284e+00 -1.9196150325883188e+01 0.0000000000000000e+00  -1.1514516397993846e-01 3.0321427639154532e+01 0.0000000000000000e+00  4.0234772838318404e+00 2.5785539465417465e+01 0.0000000000000000e+00  -8.1496332688210271e-02 2.6536875219954673e+01 0.0000000000000000e+00  -2.1992235121289680e-01 2.6758190649705984e+01 0.0000000000000000e+00  4.0527915459788728e+00 7.2933856783499262e+00 0.0000000000000000e+00  3.0042628979962362e+01 3.8073876326861028e-01 0.0000000000000000e+00  3.0346933879941197e+01 6.6783682488379265e-03 0.0000000000000000e+00  3.0231721424331791e+01 1.8849064082051467e-01 0.0000000000000000e+00  1.2202916700014439e+01 1.0980551440012368e+01 0.0000000000000000e+00  7.7513990715873859e+00 -3.5532923703199155e+00 0.0000000000000000e+00  8.3451413330064188e+00 -1.8681936508253407e+00 0.0000000000000000e+00  1.2567953300528881e+01 -5.3047119462434829e+00 0.0000000000000000e+00  -4.8820166597392936e+00 1.4593143174723027e+01 0.0000000000000000e+00  6.5018315986552357e+00 8.2781203111103068e+00 0.0000000000000000e+00  3.3599810683373246e+00 1.0082794219435394e+01 0.0000000000000000e+00  -3.3741677358555124e+00 -1.6615087986531276e+00 0.0000000000000000e+00  7.8132444962844971e+00 3.7297740686454091e+01 0.0000000000000000e+00  6.4075937231036164e+00 3.8470696761868368e+01 0.0000000000000000e+00  7.9932571315241541e+00 3.4501935840676857e+01 0.0000000000000000e+00  5.7460172059615671e+00 -9.0790535887868025e+00 0.0000000000000000e+00  5.7197667124441395e+01 -2.3013959949508527e+00 0.0000000000000000e+00  5.4806798791931790e+01 -5.2197896142217655e+00 0.0000000000000000e+00  6.1877655192209708e+01 -3.3946958505413143e+00 0.0000000000000000e+00  7.0734934528573312e+00 5.4757280114626843e+00 0.0000000000000000e+00  8.1883702472229789e+00 3.7136002733287654e+00 0.0000000000000000e+00  6.2899764195437911e+00 1.4927838507224244e+01 0.0000000000000000e+00  4.4304705128423052e+00 1.2065716779193853e+01 0.0000000000000000e+00  3.1412804909961727e+00 1.4777743580608783e+01 0.0000000000000000e+00  1.9592642287926625e+00 1.2478634724561369e+01 0.0000000000000000e+00  1.2959464122353102e+01 5.8194443430235188e+00 0.0000000000000000e+00  1.0738286592044963e+01 4.7238332595758150e+00 0.0000000000000000e+00  1.4945906629327792e+01 4.7871311972237081e+00 0.0000000000000000e+00  2.7422371563293961e+01 1.1963087868255977e+00 0.0000000000000000e+00  9.2528987305039456e-01 3.0599776977855035e+00 0.0000000000000000e+00  1.0856843357963224e+00 2.3021500306378848e+00 0.0000000000000000e+00  3.0690313401518976e+00 4.2303681379971572e+00 0.0000000000000000e+00  1.8576452437474494e+01 -9.8493551580720400e+00 0.0000000000000000e+00  1.7039120421727741e+01 -8.3002535401935535e+00 0.0000000000000000e+00  1.7152982861857883e+01 -1.1340721656932741e+01 0.0000000000000000e+00  1.9662339306984602e+01 4.7396780162085799e+00 0.0000000000000000e+00  1.9018249581860491e+01 -1.2939890782088979e+01 0.0000000000000000e+00  1.9295073208771420e+01 -5.6535026275218525e-01 0.0000000000000000e+00  1.1098737499273218e+01 8.2479919645037185e+00 0.0000000000000000e+00  1.0098830095121443e+01 5.6754002392945040e+00 0.0000000000000000e+00  1.0931537848124773e+01 8.9863871577742742e+00 0.0000000000000000e+00  9.3701216379071415e+00 7.8439590983114220e+00 0.0000000000000000e+00  -8.3949416313972112e+00 -5.1516498188806263e+00 0.0000000000000000e+00  -3.6565299423514044e+00 -4.4064500117413541e+00 0.0000000000000000e+00  -1.9306168806040432e+01 -2.5754438187835973e+00 0.0000000000000000e+00  3.0280974288920490e+01 -3.2963634699238054e-01 0.0000000000000000e+00  2.7892312298944134e+01 2.3521873905546249e+00 0.0000000000000000e+00  2.8865428580259380e+01 1.1047641891696243e+00 0.0000000000000000e+00  3.0540036017568823e+01 -1.6379589379817347e+01 0.0000000000000000e+00  2.9850713865948119e+01 -1.1332214190642643e+01 0.0000000000000000e+00  3.9881443098119277e+01 -1.7414809493001314e+01 0.0000000000000000e+00  6.3524158758198448e+00 2.8360521920855703e+01 0.0000000000000000e+00  4.0220144976157117e+00 2.9566491377658288e+01 0.0000000000000000e+00  1.6560612039394995e+00 3.3933528542045266e+01 0.0000000000000000e+00  -1.0349980080198639e+01 -4.6518801199069868e+00 0.0000000000000000e+00  7.2506988481458263e+00 1.3214405042760310e+01 0.0000000000000000e+00  1.6738337278424570e+01 -2.4274186923684824e+00 0.0000000000000000e+00  1.6558474559042782e+01 -4.7821075429839768e+00 0.0000000000000000e+00  2.1958975978015683e+01 -6.1912774300501834e+00 0.0000000000000000e+00  -7.6568892986718160e-15 2.9517612746839119e-15 0.0000000000000000e+00  -2.4764736295925162e-15 0.0000000000000000e+00 0.0000000000000000e+00  1.9015753315789937e+01 -1.1229241805538908e+01 0.0000000000000000e+00  5.6120532458431835e+00 9.9144231797978648e+00 0.0000000000000000e+00  2.7335559291547490e+01 5.3598782756997174e+00 0.0000000000000000e+00  2.1777046332455644e+01 7.2795826106103663e+00 0.0000000000000000e+00  2.1500529784795919e+01 4.1488355173403555e+00 0.0000000000000000e+00  -1.6251934777881343e-15 0.0000000000000000e+00 0.0000000000000000e+00  -5.7220036327298690e-16 0.0000000000000000e+00 0.0000000000000000e+00  8.2791823005763838e+00 -9.7896396417872857e+00 0.0000000000000000e+00  2.9207804733338040e+01 7.0134184555055523e-01 0.0000000000000000e+00  2.9088735269769103e+01 7.4600609621699743e-01 0.0000000000000000e+00  3.2676990383607425e+01 -1.4324185741276605e+00 0.0000000000000000e+00  2.9984884254374389e+01 4.4446682865558540e-01 0.0000000000000000e+00  2.7052615576766648e+01 9.0641265593667530e-02 0.0000000000000000e+00  2.4452478126582442e+01 1.3870757233784849e+00 0.0000000000000000e+00  1.7232499568854049e+01 -8.6540713303072820e+00 0.0000000000000000e+00  2.2065794720090603e-01 1.4235141064729600e+01 0.0000000000000000e+00  -2.0136731430980110e+00 9.3880010723373761e+00 0.0000000000000000e+00  -1.0874015531971950e+00 1.3268277935383928e+01 0.0000000000000000e+00  3.7124672669597802e+00 3.5583464759789230e+01 0.0000000000000000e+00  5.9234675717859044e+00 3.1428628035660573e+01 0.0000000000000000e+00  4.2124658913627378e+01 -1.4998938737545636e+01 0.0000000000000000e+00  4.5940661633938475e+01 -1.6217528729650184e+01 0.0000000000000000e+00  9.8270112459063785e+00 -2.9981119720652925e+00 0.0000000000000000e+00  8.9563627860983297e-01 1.2203214993638529e+01 0.0000000000000000e+00  2.3174697913423078e+01 -2.9396172355982144e+00 0.0000000000000000e+00  2.7233247085665877e+01 -2.3363494589879141e+00 0.0000000000000000e+00  2.3626759637073796e+01 -8.0530428926801498e+00 0.0000000000000000e+00  5.6440945294032089e-16 9.7713364046993645e-17 0.0000000000000000e+00  1.7965556584620397e-15 9.3570607211564571e-17 0.0000000000000000e+00  2.3702750778651456e+01 -3.5959707546635111e+00 0.0000000000000000e+00  1.6721050761618905e+01 -1.0814503241381199e+00 0.0000000000000000e+00  1.2694639707893644e-15 1.2694639707893644e-15 0.0000000000000000e+00  3.6111180118814961e-15 -1.0580066860686930e-15 0.0000000000000000e+00  1.2322166654866844e+01 -4.5829555790444854e+00 0.0000000000000000e+00  3.3510206337238408e+01 -6.3203312281662951e+00 0.0000000000000000e+00  3.2066450316265040e+01 -3.1665042648779140e+00 0.0000000000000000e+00  3.2958155294058365e+01 -3.9638233937013863e+00 0.0000000000000000e+00  1.5839043364263246e+01 7.3829988652021790e+00 0.0000000000000000e+00  1.6276415123080728e+01 1.7622887568498737e+00 0.0000000000000000e+00  1.2585821961468623e+01 6.1621462004010672e+00 0.0000000000000000e+00  1.6607965445309159e+01 -5.1958300946914546e+00 0.0000000000000000e+00  1.8640032816875344e+01 -3.9643579807115237e+00 0.0000000000000000e+00  -3.1792811651628799e+01 -4.1020107514752642e+00 0.0000000000000000e+00  -4.1218840536995842e+01 -7.7673954953312547e+00 0.0000000000000000e+00  -3.7406261826280478e+01 -7.0416409486723297e-01 0.0000000000000000e+00  -1.2234298053656479e+01 1.4507661076615062e+01 0.0000000000000000e+00  -1.6926685675756399e+01 3.1108205836802205e-01 0.0000000000000000e+00  -1.0246078517375354e+01 1.5973602987090672e+01 0.0000000000000000e+00  2.1702887107852380e+01 1.2640712275832582e+00 0.0000000000000000e+00  9.5974474691410183e-01 -2.7565607606162251e-01 0.0000000000000000e+00  -5.0978147224691002e+00 2.0957282870010939e+01 0.0000000000000000e+00  -1.4222934403177923e+00 3.3008283865362863e+01 0.0000000000000000e+00  -2.8789775797960906e-02 2.9898653621725998e+01 0.0000000000000000e+00  3.4604341794663260e+00 3.7464510621379581e+01 0.0000000000000000e+00  2.8624159856074026e+01 1.5514260981428516e+00 0.0000000000000000e+00  3.0722947445935048e+01 -8.5905363750454955e-01 0.0000000000000000e+00  -4.9076462142178933e+01 1.8823110701276797e+00 0.0000000000000000e+00  1.5056998083531214e+01 -3.3267633857763876e+01 0.0000000000000000e+00  1.3645638518359723e+01 -1.19