<?xml version="1.0"?>
<VTKFile type="UnstructuredGrid"  version="0.1"  >
<UnstructuredGrid>
<Piece  NumberOfPoints="2830" NumberOfCells="4920">
<Points>
<DataArray  type="Float64"  NumberOfComponents="3"  format="ascii">388539.7 1514742.8 0  388606.8 1514599.7 0  388714.9334734196 1514757.295538267 0  385959.5 1516386 0  385957.5 1516498 0  385803.7407885602 1516490.320530061 0  391577.2 1514189.7 0  391703.2 1514325.7 0  391461.776110301 1514389.260756758 0  385715.3740558237 1522580.53191638 0  385914.9980456226 1522536.322733804 0  385837.1239973567 1522765.109030153 0  385716.3769001719 1523374.783555742 0  385498.9695755704 1523261.951289085 0  385688.4011306858 1523131.133023597 0  385488.8832113142 1523031.235753941 0  390963.060743388 1520306.508017111 0  390799.4269856266 1520469.605057966 0  390802.4835455896 1520259.692536682 0  387583.8787401881 1523012.102183412 0  387784.6637921995 1523082.418318884 0  387580.3565952152 1523189.030966714 0  388899.1429699745 1515044.519208372 0  388734.918378649 1515214.408264521 0  388636.0031336829 1515074.306466703 0  387590.8434332365 1521745.782797052 0  387399.2962382794 1521644.293059797 0  387609.3139437507 1521566.700870494 0  384282.4812445474 1522513.725206123 0  384214.8699485139 1522702.311654604 0  384113.5895920917 1522476.602094412 0  384983.3518757483 1522469.123070479 0  385146.5678824318 1522276.304840694 0  385209.6690433933 1522517.567156216 0  392090.8094419572 1521266.188942788 0  391905.8696874089 1521126.769600136 0  391901.3644900686 1521373.34199514 0  391129.7039998437 1515815.952202571 0  390966.0065516442 1516004.938588663 0  390968.9371115176 1515748.697250445 0  385806.2780318121 1522374.489050962 0  385365.5282188441 1523566.17357195 0  385161.6441908038 1523660.945778846 0  385139.0354184461 1523456.180049325 0  393393.4634959702 1522688.939056401 0  393173.3785446183 1522688.615400491 0  393321.8439729246 1522516.994841117 0  387691.2 1518592.3 0  387558.3 1518695.5 0  387513.6869725586 1518483.359882921 0  387949.2384695581 1521915.166653205 0  387876.4512319269 1522121.104774502 0  387741.3815044023 1521981.882576826 0  386479.6041342944 1517805.199713551 0  386283.1539775346 1517878.152530156 0  386327.5401136165 1517656.864252804 0  386095.9150240105 1517739.385584589 0  388013.7173407545 1514395.128351149 0  388168.7421904933 1514226.377987092 0  388223.3369745669 1514417.639532916 0  384655.1459267635 1523229.989541015 0  384637.4791078825 1523448.403934124 0  384851.5745205409 1523332.056428086 0  384934.0705630425 1523550.652636524 0  384967.4213328855 1523741.41595199 0  391950.8 1516214 0  391984 1516276.8 0  391849.0481996779 1516308.37904409 0  384336.8938733437 1516855.19693793 0  384266.5607570253 1516657.429896714 0  384139.9478529661 1516827.24752304 0  384041.0864915624 1516639.900436674 0  387246.9434652795 1518549.809879928 0  387165.7810892204 1518365.751413356 0  387052.9221947453 1518580.417862229 0  392761.8425024427 1522064.136701567 0  392991.0602796051 1522161.227451799 0  392939.2872709644 1521956.742495608 0  391098.099949792 1516395.857693629 0  391060.4005260778 1516195.530077367 0  390883.3912631608 1516349.480211717 0  389102.9346272714 1521940.147831639 0  389295.2028319321 1521794.297329793 0  389085.5382545544 1521713.805329105 0  389254.9528761144 1521577.005223669 0  384629.4743996708 1516711.739387267 0  384573.8425391976 1516527.105506992 0  384450.2671690275 1516704.064565487 0  391085.1033525547 1520647.379759239 0  391284.3435023229 1520580.442000031 0  391160.7724908218 1520414.491948576 0  391290.164540833 1515527.863999181 0  391505.8849133186 1515441.190455041 0  391266.048839645 1515349.596842534 0  396670.7360192415 1524303.600371954 0  396910.9395922969 1524269.101339772 0  396778.5167787529 1524123.067592887 0  390877.8235008612 1516790.114761605 0  390715.7442220995 1516921.525543035 0  390945.8724425539 1516955.498160951 0  390832.0862156531 1517093.465626914 0  390606.9251559877 1522203.702103175 0  390673.8688501425 1522425.800894604 0  390441.7519181859 1522292.771565949 0  390089.4306037152 1522959.778726473 0  390010.2562460944 1522746.626695848 0  390262.8706340973 1522819.388004508 0  391169.9343550139 1522716.258770412 0  391410.8885327555 1522785.868703609 0  391313.8337816519 1522588.902912606 0  387899.4323508798 1515854.563249835 0  388070.039090699 1515680.67749324 0  387864.3518600252 1515619.096396239 0  386549.5991132558 1522805.322744258 0  386508.6136055299 1523027.149597443 0  386338.8454503023 1522844.588766166 0  389845.7 1516639.2 0  389791.7 1516517.5 0  389963.8080006781 1516600.723685664 0  385345.5997056778 1523370.623656334 0  395938.5 1524326.3 0  395869.9 1524249.75 0  396012.1047098559 1524267.471576763 0  388733.1463231576 1514929.511447056 0  386478.3992532056 1516584.53978458 0  386464.3583984189 1516359.427652975 0  386614.2566352416 1516501.476776693 0  390828.5012251576 1513684.492136923 0  390578.8893823944 1513665.935447997 0  390724.0305446836 1513822.976846546 0  386966.918491939 1518427.257953324 0  388991.4552019534 1515935.734911302 0  389162.6992449689 1516029.17645076 0  389191.7643128068 1515824.61928087 0  388004.4691868922 1515446.063973414 0  386530 1514744.5 0  386698.3 1514784.5 0  386669.5618207033 1514926.997380896 0  387701.8457658654 1522904.526130697 0  392853.1972927429 1522241.345716074 0  388155.5118686854 1515275.727638824 0  388147.1769824181 1515532.64944205 0  388293.1906614315 1515451.763326872 0  390684.9250633547 1513520.681450744 0  394241.7729136363 1522177.794938567 0  394421.8390287936 1522018.053670921 0  394248.2593470229 1521932.149702253 0  390026.5937931744 1518399.680457792 0  390025.5755366744 1518655.377207813 0  389865.715073391 1518477.4506508 0  385572.0807740803 1515066.323803339 0  385777.6921283445 1514923.790547783 0  385750.9174996216 1515149.797503353 0  390051.3594815448 1516027.097800922 0  390043.6174137343 1516252.126079995 0  389896.4307100839 1516092.751282973 0  394072.4859667895 1522442.057137974 0  394299.5252553917 1522407.200029687 0  394127.3749830733 1522610.048537548 0  386821.3859741656 1522839.30254373 0  386712.259139554 1522661.044991347 0  394958.4573968287 1522260.394241058 0  395164.0783939189 1522338.122902643 0  394981.4186529827 1522459.962215469 0  385863.9013960641 1517701.533347221 0  385962.2557108557 1517913.902597109 0  387805.2 1518278.3 0  387778 1518457.5 0  387628.3111876079 1518343.11509099 0  386905.9566004391 1522578.782806499 0  387005.9318932953 1522788.09935559 0  387369.5 1520935.7 0  387278.5 1520881.7 0  387248.960520084 1521039.961693353 0  384300.5 1515756.3 0  384147.7 1515627.5 0  384307.1188698498 1515575.08517125 0  391294.4928962277 1522879.306920856 0  386931.2231254544 1518692.368155682 0  386795.6251139504 1518524.828966651 0  390710.5833946784 1516412.359590379 0  390793.7678028825 1516596.53430769 0  390378.8 1521223.3 0  390259.4 1521246.7 0  390401.7535836014 1521393.981456714 0  388492 1514852.8 0  388502.8 1514830 0  388597.4566762904 1514894.984555688 0  386365.3 1515986.8 0  386328.7 1516081.4 0  386476.4388744553 1515988.212714275 0  390083.4499767652 1522257.534933978 0  389857.1731965211 1522167.540531392 0  389984.2719414565 1522016.506275303 0  386420.8315859591 1519370.563857312 0  386311.2713229888 1519554.950708366 0  386475.1755046581 1519589.820167906 0  390048.3 1523255.5 0  389947.75 1523276.1 0  389967.4279318356 1523109.214084848 0  386209.6289416393 1519440.196486957 0  384410.3344756938 1516519.296750554 0  385380.3214416776 1516505.050173209 0  385590.1951437978 1516504.61259993 0  385448.8193687261 1516335.853272432 0  390902.6961806221 1522834.000527587 0  390949.6910214389 1522593.868134837 0  390766.2933288763 1522781.125029146 0  388138.3678670406 1521775.661012643 0  388152.5734510276 1522001.062709716 0  390972.4098319511 1516515.524630197 0  390731.6550040277 1522620.474964688 0  384178.3 1514572.8 0  384260.7 1514654.8 0  384092.9175415332 1514694.038767113 0  397904.7 1525523.2 0  397822.7 1525663.2 0  397706.3685110808 1525480.368997901 0  391534.1601314059 1514669.948913063 0  391457.1018372408 1514882.204798755 0  391303.7463652284 1514681.33481393 0  396644.6701065457 1524165.597492375 0  392318.3 1515827.5 0  392181.2 1515972.7 0  392150.4624945794 1515755.5586769 0  388323.4037581796 1515734.323366399 0  388543.0931071977 1515621.803715688 0  388569.6962280147 1515793.894844455 0  387365.7 1515999.5 0  387272.8 1515900.3 0  387478.9713642649 1515866.580333586 0  390181.2301938052 1518496.312114478 0  386047.3 1519247.2 0  386061.3 1519378.2 0  386241.9899612362 1519292.641530581 0  390211.62046851 1516176.233184951 0  394317.5512711704 1522610.721755669 0  387061.3100151045 1522971.43573017 0  386994.2739143138 1523214.757522574 0  386874.752613069 1523026.291318164 0  391232.4958937652 1514490.113674316 0  391041.6530867353 1514336.593998905 0  391088.4858934171 1514553.860864254 0  384800.2016030768 1522814.210071538 0  384634.7947796467 1522994.236505893 0  384852.3727816223 1522981.586860705 0  383463.0861541105 1517016.710046121 0  383505.7098103552 1516776.951894968 0  383632.3831391353 1516963.185273821 0  391416.0932608964 1515243.668142478 0  395412.3980190267 1522586.206445412 0  395594.8097193 1522675.000627529 0  395434.5233325348 1522837.744387911 0  388977.0897345204 1515733.6200847 0  389530.5 1517834.3 0  389448.5 1517742.3 0  389610.8773037432 1517687.299851321 0  388561.4321043688 1516867.645618212 0  388798.0229879221 1516910.861983849 0  388638.8458268811 1517090.381256995 0  387639.2778114074 1515898.939605239 0  387731.0219184323 1516049.102239147 0  387451.7 1517170.8 0  387402.5 1517259.8 0  387565.0448196105 1517192.216791584 0  385774.4123847951 1517474.426325427 0  385575.8570247293 1517384.215764499 0  385750.0962563544 1517271.144341147 0  393156.2660396229 1522531.743352954 0  385491.9803253137 1521858.776315798 0  385699.2917014376 1521759.771211687 0  385664.154496179
[...]
<PointData  Vectors="f_221"> 
<DataArray  type="Float64"  Name="f_221"  NumberOfComponents="3" format="ascii">-1.3031877591659949e-15 -2.2805785785404909e-15 0.0000000000000000e+00  5.1878680604264947e-16 -5.8363515679798059e-16 0.0000000000000000e+00  5.2637027166903483e+00 4.6740076257348901e+00 0.0000000000000000e+00  -2.0632070064081325e-15 -1.5633398370739535e-15 0.0000000000000000e+00  -2.8115243560845921e-16 1.1246097424338368e-15 0.0000000000000000e+00  -4.1868506392328975e+00 8.9195436954624565e+00 0.0000000000000000e+00  -5.9692668472884555e-16 0.0000000000000000e+00 0.0000000000000000e+00  1.8251411886009277e-15 -4.2198764233004811e-16 0.0000000000000000e+00  -3.8848381341691911e+00 9.4163406280023381e+00 0.0000000000000000e+00  3.4773828346548967e+01 -1.5423101910479209e+00 0.0000000000000000e+00  3.4776288186890319e+01 -1.1973146422606797e+00 0.0000000000000000e+00  3.4960752692624951e+01 -1.1790333698313464e+00 0.0000000000000000e+00  2.7198728784939121e+01 -3.7040774204008784e+00 0.0000000000000000e+00  3.0685819750795879e+01 -5.1996138495110946e+00 0.0000000000000000e+00  3.1860786760628223e+01 -2.7375750693286549e+00 0.0000000000000000e+00  3.4263105746252180e+01 -3.0485875572546424e+00 0.0000000000000000e+00  9.3763650791716184e+00 1.4008267799036666e+01 0.0000000000000000e+00  9.4634498243685492e+00 1.4663757600153728e+01 0.0000000000000000e+00  1.0004590453875554e+01 1.4848284369984848e+01 0.0000000000000000e+00  2.7978794510552326e+01 -2.0112661228948090e+00 0.0000000000000000e+00  2.6899474849862724e+01 4.2388241844528984e-01 0.0000000000000000e+00  1.6792334393812396e+01 -3.3244898280374473e+00 0.0000000000000000e+00  6.5412653781503556e+00 1.1927979857879718e+01 0.0000000000000000e+00  1.2180740415595208e+01 4.0134542250711238e+00 0.0000000000000000e+00  5.5743347706229329e+00 3.4717489147235234e+00 0.0000000000000000e+00  2.5132628381641808e+01 1.1658564247122896e+00 0.0000000000000000e+00  2.2516477119548725e+01 1.3903098835399370e+00 0.0000000000000000e+00  1.9650116833461340e+01 2.4093740187421275e+00 0.0000000000000000e+00  3.3013739733819826e+01 -1.4495439400353776e+00 0.0000000000000000e+00  3.3858231936343287e+01 -1.4113434552919655e+00 0.0000000000000000e+00  3.1052477410990900e+01 -1.2736254092821369e+00 0.0000000000000000e+00  3.4836568653114547e+01 -2.0983509108194451e+00 0.0000000000000000e+00  3.1966494742474890e+01 -4.8426170279095743e-01 0.0000000000000000e+00  3.4977109702171326e+01 -1.7849370639824857e+00 0.0000000000000000e+00  2.3771454604231188e+01 1.4206873983258363e+01 0.0000000000000000e+00  1.4256927792202832e+01 1.3665627938417703e+01 0.0000000000000000e+00  2.9129563242164288e+01 1.2109442162947136e+01 0.0000000000000000e+00  -1.0517888841914658e+01 3.9843306525835523e+01 0.0000000000000000e+00  -1.8199541796354076e+01 3.0743802573994735e+01 0.0000000000000000e+00  -7.9608834462362008e+00 4.3315803614643073e+01 0.0000000000000000e+00  3.3497084024927048e+01 -1.8702964119678285e+00 0.0000000000000000e+00  2.0520708250113650e+01 -4.5280071235374582e+00 0.0000000000000000e+00  1.6365325354452185e+01 -4.2436381385069444e+00 0.0000000000000000e+00  2.6394998645580298e+01 -5.2994910461613953e+00 0.0000000000000000e+00  3.3085264496903953e+01 -6.9169298413628466e+00 0.0000000000000000e+00  3.0726648053580419e+01 -8.4089696131537401e+00 0.0000000000000000e+00  4.5130652173341836e+01 -3.3364224660269248e+00 0.0000000000000000e+00  -7.4909379504163698e-16 1.3619887182575216e-16 0.0000000000000000e+00  -6.5576254306890614e-16 -6.6886872166169270e-16 0.0000000000000000e+00  -2.7060168421353610e+00 3.2102947439043659e+00 0.0000000000000000e+00  2.8673496613441053e+01 2.9774020153507097e+00 0.0000000000000000e+00  3.2125817414659416e+01 2.5460978785664659e+00 0.0000000000000000e+00  2.9460957552411170e+01 2.2806189301866819e+00 0.0000000000000000e+00  2.8397171726802388e+00 1.4449348689221289e+01 0.0000000000000000e+00  5.7116176101220191e+00 1.9625453429423235e+01 0.0000000000000000e+00  5.8718630670642211e+00 1.7381935923115009e+01 0.0000000000000000e+00  8.3612782268687926e+00 1.8865192168420808e+01 0.0000000000000000e+00  -5.4402071601609432e+00 2.2335553314602230e+01 0.0000000000000000e+00  -6.2812975319721138e+00 9.8884215992241078e+00 0.0000000000000000e+00  -8.6242455909260851e+00 1.5476145189719320e+01 0.0000000000000000e+00  3.2676990383607425e+01 -1.4324185741276605e+00 0.0000000000000000e+00  2.7052615576766648e+01 9.0641265593667530e-02 0.0000000000000000e+00  3.1011626704822774e+01 -2.9396946928418863e+00 0.0000000000000000e+00  2.3175409551019229e+01 -2.1955112172208717e+00 0.0000000000000000e+00  1.4131421697337483e+01 -1.3983286183272061e+00 0.0000000000000000e+00  3.2014327668612695e-15 3.9423371099214708e-16 0.0000000000000000e+00  0.0000000000000000e+00 0.0000000000000000e+00 0.0000000000000000e+00  -8.6769525665221696e+00 5.5858109427571225e+00 0.0000000000000000e+00  2.9270274836317835e+01 -1.1385151895040757e+01 0.0000000000000000e+00  2.6724495296937455e+01 -4.6500014997573436e+00 0.0000000000000000e+00  2.2182978799737846e+01 -9.7922938955565275e+00 0.0000000000000000e+00  1.7351555915590453e+01 3.3360430307333816e-01 0.0000000000000000e+00  -1.4695920875699138e+00 1.8572808462177890e+00 0.0000000000000000e+00  -4.6595562565525928e+00 4.0899393257314145e+00 0.0000000000000000e+00  -1.0083391696448625e+00 7.7256724099539142e-01 0.0000000000000000e+00  6.5817140754709229e+01 1.2926707254960322e+01 0.0000000000000000e+00  6.4070119878419774e+01 1.4207247923570307e+01 0.0000000000000000e+00  6.4639366925499090e+01 1.6417771532178236e+01 0.0000000000000000e+00  -7.2981871617884231e+00 1.4583745277222093e+00 0.0000000000000000e+00  -1.1725705113775245e+01 1.0471203180892564e+01 0.0000000000000000e+00  -7.5032378487826863e+00 1.3558930654012192e+01 0.0000000000000000e+00  3.7306166150939887e+01 5.0303598888443064e+00 0.0000000000000000e+00  3.4575194630691364e+01 4.4532348567926849e+00 0.0000000000000000e+00  3.0379050406398832e+01 5.1170322288170418e+00 0.0000000000000000e+00  2.4373783734103593e+01 3.6236452869309379e+00 0.0000000000000000e+00  3.3149183527781346e+01 -2.0639070915716842e-01 0.0000000000000000e+00  2.3950548936482615e+01 1.0493671578499610e+00 0.0000000000000000e+00  3.2877467379786005e+01 -4.6639323906115093e+00 0.0000000000000000e+00  1.0046259682193318e+01 1.4036834253027839e+01 0.0000000000000000e+00  6.8503882684542790e+00 1.1028127739532218e+01 0.0000000000000000e+00  7.7330416846457180e+00 1.1200457121528778e+01 0.0000000000000000e+00  -1.6443933725167302e+01 3.7690578187640902e+01 0.0000000000000000e+00  -1.1015793621358899e+01 3.9919671695683707e+00 0.0000000000000000e+00  -7.4655230277096676e+00 3.7923209807906439e+01 0.0000000000000000e+00  4.3080739749167414e+00 -1.3831460758521508e+00 0.0000000000000000e+00  4.2650710274853880e+00 -1.1055049961447869e+00 0.0000000000000000e+00  5.6781761659743308e+00 -1.4844421650680630e+00 0.0000000000000000e+00  -6.3022249061246782e+00 6.6004177895132266e+00 0.0000000000000000e+00  -7.5597853337774348e+00 1.6046045094986656e+01 0.0000000000000000e+00  -6.6340034350109693e+00 1.3379939795063480e+00 0.0000000000000000e+00  -5.1569113851303268e+00 5.9513292587790811e+00 0.0000000000000000e+00  4.5040978397504873e+01 -7.8978858011350077e+00 0.0000000000000000e+00  4.1248996630767515e+01 -1.0031159046851002e+01 0.0000000000000000e+00  4.4673022576904621e+01 -6.4827700659787428e+00 0.0000000000000000e+00  1.8988982021513415e+01 -5.3244765143933863e+00 0.0000000000000000e+00  3.7441869273298799e+01 -2.4826125920338971e+00 0.0000000000000000e+00  2.7968418894982570e+01 -1.2111295729210310e+01 0.0000000000000000e+00  2.1110215068522059e+01 -1.4739810037113715e+01 0.0000000000000000e+00  1.0548816734607550e+01 -1.2425882774186928e+01 0.0000000000000000e+00  2.8731988702593458e+01 -1.5410706257713278e+01 0.0000000000000000e+00  7.7509817948846074e+00 -1.6801532711320757e+00 0.0000000000000000e+00  2.1064780447463949e+01 1.7380236186025846e+00 0.0000000000000000e+00  1.2948555785706976e+01 5.2989309551798707e+00 0.0000000000000000e+00  3.3213567979657363e+01 3.5119388668942331e-01 0.0000000000000000e+00  3.0412918707049265e+01 4.9688703594732708e-01 0.0000000000000000e+00  3.3551400926586929e+01 2.7962609647934445e-02 0.0000000000000000e+00  -1.5180428345617339e-15 5.0601427818724461e-16 0.0000000000000000e+00  -6.6715313677612307e-17 -6.2790883461282166e-17 0.0000000000000000e+00  4.5650605185274529e+00 4.7593309696523098e+00 0.0000000000000000e+00  2.8843171144891425e+01 -6.4396987145715157e+00 0.0000000000000000e+00  0.0000000000000000e+00 2.4538884752825906e-16 0.0000000000000000e+00  -2.1645154135966314e-16 4.7619339099125888e-16 0.0000000000000000e+00  6.3962608634248630e-01 -3.5590827745182357e-01 0.0000000000000000e+00  5.7740278693757352e+00 6.8958212544200652e+00 0.0000000000000000e+00  -7.6437222123281421e+00 1.4553349090162774e+01 0.0000000000000000e+00  -7.9515307940891864e+00 1.1211923759595761e+01 0.0000000000000000e+00  -1.0772164339559911e+01 1.1145438762689029e+01 0.0000000000000000e+00  4.7658098564402094e+00 1.2975931549202423e+01 0.0000000000000000e+00  5.9610116023281670e+00 8.8236946328428161e+00 0.0000000000000000e+00  8.9180588504186371e+00 1.1450858022682548e+01 0.0000000000000000e+00  -2.4820472601717105e+00 6.4207807393359029e-01 0.0000000000000000e+00  7.4136545825533400e+00 -4.8152133004140056e+00 0.0000000000000000e+00  4.9753953927014463e+00 -3.6991386702750066e+00 0.0000000000000000e+00  1.8615173767875167e+01 1.4353815845505480e+00 0.0000000000000000e+00  2.2562461150854922e+01 1.6352199058880615e+01 0.0000000000000000e+00  -6.6349127035050020e-16 0.0000000000000000e+00 0.0000000000000000e+00  -2.8520908593619638e-16 5.7041817187239276e-16 0.0000000000000000e+00  -3.1685593035782884e+00 6.5509836210531462e+00 0.0000000000000000e+00  3.0871888641802748e+01 -1.2164035523540373e-02 0.0000000000000000e+00  6.2750482722610364e+01 9.3018902238581180e+00 0.0000000000000000e+00  2.3935182892303924e+01 3.2837545662359254e+01 0.0000000000000000e+00  2.8234024505364562e+01 1.3235724762142574e+01 0.0000000000000000e+00  3.0815079814706138e+01 1.9826242527887928e+01 0.0000000000000000e+00  7.4639707427647073e+00 8.8731255713625359e+00 0.0000000000000000e+00  6.6603935303156476e+01 6.4766132240468242e+00 0.0000000000000000e+00  5.8582066065257351e+01 1.3904309767231069e+01 0.0000000000000000e+00  5.6371640011099174e+01 1.8904525749515436e+01 0.0000000000000000e+00  2.9659121359263385e+00 2.8211454752089189e+01 0.0000000000000000e+00  4.2518578079369052e+00 2.2782858172016414e+01 0.0000000000000000e+00  2.6862242092656143e+00 2.0982462392826758e+01 0.0000000000000000e+00  -7.8657176231647776e+00 8.4620474334465605e+00 0.0000000000000000e+00  -6.0687126386045032e+00 9.7060060503010348e+00 0.0000000000000000e+00  -1.1959870228845292e+01 6.6154549839602321e+00 0.0000000000000000e+00  1.0361268394253141e+01 1.0436880563698809e+01 0.0000000000000000e+00  8.5796463357604384e+00 9.5895596185006298e+00 0.0000000000000000e+00  8.0271731694694015e+00 8.6310850800122036e+00 0.0000000000000000e+00  6.0465381832519355e+01 -5.1156662439406659e+00 0.0000000000000000e+00  6.3372320344554090e+01 -3.0934341805124705e+00 0.0000000000000000e+00  5.3200530047018773e+01 -8.5996967347255140e+00 0.0000000000000000e+00  3.2775877628078355e+01 -7.2530703870419766e-01 0.0000000000000000e+00  3.3963910795091032e+01 -1.6856334061888173e-01 0.0000000000000000e+00  4.5855989533852295e+01 2.0524527399706929e+00 0.0000000000000000e+00  2.8124054908536479e+01 6.3676813541301669e-01 0.0000000000000000e+00  4.4571706473848884e+01 2.3167607119080138e+00 0.0000000000000000e+00  9.6052401896876827e+00 1.5932134128221996e+01 0.0000000000000000e+00  6.8210855989812993e+00 1.5934722725256773e+01 0.0000000000000000e+00  -1.6218524937936213e-16 -7.8811715313305407e-16 0.0000000000000000e+00  -5.7004927620518767e-16 1.4251231905129692e-16 0.0000000000000000e+00  -5.5765467593133167e+00 3.5256831779973736e+00 0.0000000000000000e+00  3.4370012014900254e+01 -4.0032958435581317e-01 0.0000000000000000e+00  3.2881663069200748e+01 -1.6969665325916301e+00 0.0000000000000000e+00  -1.5630729662492376e-15 1.0319849230484163e-15 0.0000000000000000e+00  -1.6402266383017806e-16 0.0000000000000000e+00 0.0000000000000000e+00  4.5797551275926338e+00 3.8387503381081332e+00 0.0000000000000000e+00  0.0000000000000000e+00 -5.0427569829586783e-16 0.0000000000000000e+00  2.2348320424844891e-15 -4.8978991585002408e-16 0.0000000000000000e+00  7.8053567764135483e+00 5.2889274261924770e+00 0.0000000000000000e+00  4.1950674268516908e+00 -9.0197233339844800e+00 0.0000000000000000e+00  -1.3057450388631293e+00 7.2820285709894916e-01 0.0000000000000000e+00  -5.6159621843314360e+00 4.5071006496547854e+00 0.0000000000000000e+00  -4.4660384610754349e+00 1.8067383691550475e+01 0.0000000000000000e+00  -4.5689850725347911e+00 1.5261438387035717e+01 0.0000000000000000e+00  -2.0737204018465187e-15 -1.0368602009232593e-15 0.0000000000000000e+00  -2.4254847578420194e-15 -2.1488439775645755e-15 0.0000000000000000e+00  1.7803682893779836e+01 8.0382974655554165e+00 0.0000000000000000e+00  7.1163306720025773e-16 -1.2524214571632616e-15 0.0000000000000000e+00  6.4812224751163225e-17 9.0737114651628511e-16 0.0000000000000000e+00  5.8561836643875225e+00 1.5574850401770308e+00 0.0000000000000000e+00  0.0000000000000000e+00 -4.5620435234966767e-16 0.0000000000000000e+00  -4.6329469029469095e-16 0.0000000000000000e+00 0.0000000000000000e+00  -2.2902489228211702e+00 7.1884810794630063e+00 0.0000000000000000e+00  4.6588641850997909e+01 -2.9788662471532152e+00 0.0000000000000000e+00  4.4961590967648732e+01 -1.2858386991109876e+00 0.0000000000000000e+00  4.3197895021137164e+01 -2.6645803920791185e+00 0.0000000000000000e+00  1.7375001486692108e+00 2.3740961866181980e+01 0.0000000000000000e+00  3.1526832441322994e-01 2.1174430626911207e+01 0.0000000000000000e+00  -3.2739205692645690e-01 2.3678752777786357e+01 0.0000000000000000e+00  2.0658569625512738e-15 -2.0658569625512738e-15 0.0000000000000000e+00  -2.4841404638685337e-15 0.0000000000000000e+00 0.0000000000000000e+00  8.9310175842780364e+00 1.5136486547447698e-02 0.0000000000000000e+00  2.6060853488342000e+00 1.5951266451527401e+01 0.0000000000000000e+00  2.1205238706313366e+01 -3.6652050979494422e-01 0.0000000000000000e+00  1.0331647534599918e+01 1.6954695984182351e+01 0.0000000000000000e+00  4.0715490138609054e+00 1.2995354756542078e+01 0.0000000000000000e+00  2.5664595436970656e+00 1.1768274423990848e+01 0.0000000000000000e+00  1.4901641428284965e+01 -1.3295631470428297e+01 0.0000000000000000e+00  3.2932169172323974e+01 -1.4663203268484434e+01 0.0000000000000000e+00  2.0748471201891373e+01 -1.5363525379966864e+01 0.0000000000000000e+00  2.5912271497261099e+01 5.5380100049073180e+00 0.0000000000000000e+00  3.2653461621686766e+01 4.9327637194968901e+00 0.0000000000000000e+00  -5.1150932009085599e+00 6.1614199306111832e+00 0.0000000000000000e+00  3.1572516693080310e+01 -1.4148043721307815e+01 0.0000000000000000e+00  -3.2846612170560144e-16 2.6277289736448115e-15 0.0000000000000000e+00  0.0000000000000000e+00 -6.6602508801403783e-16 0.0000000000000000e+00  -2.1348594989709353e+00 8.3258563241190515e+00 0.0000000000000000e+00  -1.2536116206473879e-17 1.4625468907552858e-17 0.0000000000000000e+00  1.6751263750596041e-17 0.0000000000000000e+00 0.0000000000000000e+00  -4.6045889443926423e-02 8.1924174877157363e-02 0.0000000000000000e+00  -6.6038464770184886e+00 5.7993472680321316e+00 0.0000000000000000e+00  -8.2310345658272350e+00 1.1212360963118078e+01 0.0000000000000000e+00  -1.9297019623742180e+00 2.0483494394108206e+01 0.0000000000000000e+00  5.4158736860487027e+00 -1.3329914478201244e+00 0.0000000000000000e+00  -1.6742980075147866e-15 2.1400681370217456e-15 0.0000000000000000e+00  0.0000000000000000e+00 -1.3178503503292254e-15 0.0000000000000000e+00  -1.3451597085887689e+01 8.6610646534757709e+00 0.0000000000000000e+00  2.6425516186427451e+01 2.2257849250834085e+00 0.0000000000000000e+00  4.3261487572135842e+01 4.4994334233100792e+00 0.0000000000000000e+00  2.9147273012201786e+01 1.7708585218795111e-01 0.0000000000000000e+00  0.0000000000000000e+00 -5.7834628383304792e-16 0.0000000000000000e+00  -2.6591405254232522e-16 1.9735159312240172e-16 0.0000000000000000e+00  4.9119854907025697e+00 -4.1901897403318786e+00 0.0000000000000000e+00  4.5583475611042577e+00 2.3158394420221168e+01 0.0000000000000000e+00  0.0000000000000000e+00 -1.9932957006929838e-15 0.0000000000000000e+00  -8.4368179946277025e-16 -1.5615665356187987e-15 0.0000000000000000e+00  3.9409697563965587e+00 1.6886501684967570e+01 0.0000000000000000e+00  1.0210636487775318e+01 1.3354723440902982e+01 0.0000000000000000e+00  5.3613682749743653e+01 -8.2617118645607430e+00 0.0000000000000000e+00  2.9506237971155432e+01 -2.5702736050565189e+00 0.0000000000000000e+00  1.9921106361615227e+01 6.4993477319636672e-01 0.0000000000000000e+00  2.8671125962494170e+01 -6.9233233363739877e-01 0.0000000000000000e+00  6.2828127111233147e+00 2.3393689306210067e+01 0.0000000000000000e+00  1.1468153684053672e+01 2.5628777055737217e+01 0.0000000000000000e+00  9.5616471566863215e+00 2.6053664994627731e+01 0.0000000000000000e+00  3.7836339817625813e+01 -3.9696570021303290e+00 0.0000000000000000e+00  3.6965665201019462e+01 -2.4003845427788830e+00 0.0000000000000000e+00  3.7407857352934293e+01 -4.0874943334234137e+00 0.0000000000000000e+00  1.4237068138543782e+01 -1.5811414100984946e+01 0.0000000000000000e+00  1.1670043293602616e+01 -2.9120822273890479e+00 0.0000000000000000e+00  1.1894712152823198e+01 -1.1186090533982524e+01 0.0000000000000000e+00  -1.0812927717479447e+01 1.7898741629196607e+01 0.0000000000000000e+00  2.3415156274353862e+01 9.3959606017564354e+00 0.0000000000000000e+00  1.7587641637191354e+01 8.5318111096156386e+00 0.0000000000000000e+00  2.5695108793623856e+01 1.2286304967818410e+01 0.0000000000000000e+00  2.1690484002449391e+01 -2.0111481187664251e+00 0.0000000000000000e+00  -3.1453477977239108e-16 8.0886175457504228e-16 0.0000000000000000e+00  2.2210809218950995e-15 -1.7352194702305465e-17 0.0000000000000000e+00  1.3214747099966720e+01 7.0784737673949050e-01 0.0000000000000000e+00  5.1969333900071417e+00 8.2126878002978181e+00 0.0000000000000000e+00  3.2995756802421963e+00 7.7661264057902217e+00 0.0000000000000000e+00  8.6204060484894978e+00 5.7896476240880776e+00 0.0000000000000000e+00  5.4848831831667662e+00 -2.7349954136561081e+00 0.0000000000000000e+00  3.1751013275477153e+00 -4.3490491445279780e+00 0.0000000000000000e+00  -1.6790270150872477e-16 -4.4774053735659944e-16 0.0000000000000000e+00  -1.5918460244311794e-16 1.8199174749174010e-15 0.0000000000000000e+00  8.8314278127584767e-01 4.6933437803783020e+00 0.0000000000000000e+00  1.3085972765239003e+01 1.6985058860775183e+01 0.0000000000000000e+00  1.2504244063066963e+01 1.6239999316403988e+01 0.0000000000000000e+00  1.5599365884918470e+01 1.8651852341258490e+01 0.0000000000000000e+00  4.3274147606866691e+01 -1.3505930672714361e+00 0.0000000000000000e+00  2.0478643825128451e+01 -2.1272394284700473e+00 0.0000000000000000e+00  1.7833888127703254e+01 -3.6452010795201972e+00 0.0000000000000000e+00  2.4621701416998771e+01 -2.9135887555583309e+00 0.0000000000000000e+00  -1.4210503056079951e+00 -8.6064417259155779e-01 0.0000000000000000e+00  -1.7480417227149743e+00 -7.2975769120488443e-01 0.0000000000000000e+00  -1.2572824856059259e+00 -1.2218465996295547e+00 0.0000000000000000e+00  6.4803161802206631e+01 1.8931025003615254e+00 0.0000000000000000e+00  -1.1441357425308285e+01 2.2691706399614276e+01 0.0000000000000000e+00  -6.8434744692272398e+00 1.1111436548976775e+01 0.0000000000000000e+00  2.1096609383569933e-16 -1.2657965630141961e-15 0.0000000000000000e+00  -1.5774565998806941e-16 -6.3098263995227763e-16 0.0000000000000000e+00  -3.5149077108461575e+00 4.9018928802061081e+00 0.0000000000000000e+00  6.6846522136908781e+00 2.049217